version 3
run PureAlohaExperiment-9-20250302-16:22:00-14228
attr configname PureAlohaExperiment
attr datetime 20250302-16:22:00
attr datetimef 20250302-162200
attr experiment PureAlohaExperiment
attr inifile omnetpp.ini
attr iterationvars "$numHosts=15, $iaMean=3"
attr iterationvarsd numHosts=15/iaMean=3
attr iterationvarsf numHosts=15,iaMean=3-
attr measurement "$numHosts=15, $iaMean=3"
attr network Aloha
attr processid 14228
attr repetition 0
attr replication #0
attr resultdir results
attr runnumber 9
attr seedset 9
itervar iaMean 3
itervar numHosts 15
config description "Channel utilization in the function of packet generation frequency"
config repeat 1
config sim-time-limit 90min
config Aloha.numHosts 15
config Aloha.host[*].iaTime exponential(3s)
config network Aloha
config Aloha.numHosts 20
config Aloha.slotTime 0s
config Aloha.txRate 9.6kbps
config Aloha.host[*].pkLenBits 952b
config **.x "uniform(0m, 1000m)"
config **.y "uniform(0m, 1000m)"
config **.animationHoldTimeOnCollision 0s
config **.idleAnimationSpeed 1
config **.transmissionEdgeAnimationSpeed 1e-6
config **.midTransmissionAnimationSpeed 1e-1

vector 0 Aloha.server serverChannelState:vector ETV
attr enum IDLE=0,TRANSMISSION=1,COLLISION=2
attr recordingmode vector
attr source channelState
attr title "Channel state"
vector 1 Aloha.server channelUtilization:vector ETV
attr interpolationmode linear
attr recordingmode vector
attr source timeavg(receive)
attr title "channel utilization"
vector 2 Aloha.host[0] radioState:vector ETV
attr enum IDLE=0,TRANSMIT=1
attr recordingmode vector
attr source state
attr title "Radio state"
vector 3 Aloha.host[1] radioState:vector ETV
attr enum IDLE=0,TRANSMIT=1
attr recordingmode vector
attr source state
attr title "Radio state"
vector 4 Aloha.host[2] radioState:vector ETV
attr enum IDLE=0,TRANSMIT=1
attr recordingmode vector
attr source state
attr title "Radio state"
vector 5 Aloha.host[3] radioState:vector ETV
attr enum IDLE=0,TRANSMIT=1
attr recordingmode vector
attr source state
attr title "Radio state"
vector 6 Aloha.host[4] radioState:vector ETV
attr enum IDLE=0,TRANSMIT=1
attr recordingmode vector
attr source state
attr title "Radio state"
vector 7 Aloha.host[5] radioState:vector ETV
attr enum IDLE=0,TRANSMIT=1
attr recordingmode vector
attr source state
attr title "Radio state"
vector 8 Aloha.host[6] radioState:vector ETV
attr enum IDLE=0,TRANSMIT=1
attr recordingmode vector
attr source state
attr title "Radio state"
vector 9 Aloha.host[7] radioState:vector ETV
attr enum IDLE=0,TRANSMIT=1
attr recordingmode vector
attr source state
attr title "Radio state"
vector 10 Aloha.host[8] radioState:vector ETV
attr enum IDLE=0,TRANSMIT=1
attr recordingmode vector
attr source state
attr title "Radio state"
vector 11 Aloha.host[9] radioState:vector ETV
attr enum IDLE=0,TRANSMIT=1
attr recordingmode vector
attr source state
attr title "Radio state"
vector 12 Aloha.host[10] radioState:vector ETV
attr enum IDLE=0,TRANSMIT=1
attr recordingmode vector
attr source state
attr title "Radio state"
vector 13 Aloha.host[11] radioState:vector ETV
attr enum IDLE=0,TRANSMIT=1
attr recordingmode vector
attr source state
attr title "Radio state"
vector 14 Aloha.host[12] radioState:vector ETV
attr enum IDLE=0,TRANSMIT=1
attr recordingmode vector
attr source state
attr title "Radio state"
vector 15 Aloha.host[13] radioState:vector ETV
attr enum IDLE=0,TRANSMIT=1
attr recordingmode vector
attr source state
attr title "Radio state"
vector 16 Aloha.host[14] radioState:vector ETV
attr enum IDLE=0,TRANSMIT=1
attr recordingmode vector
attr source state
attr title "Radio state"
0	0	0	0
0	2	0.438573773929	1
0	4	0.537740440596	0
0	6	1.465614586273	1
0	8	1.56478125294	0
0	10	1.880218405323	1
0	12	1.97938507199	0
0	14	2.381144682034	1
0	16	2.415965371497	2
0	19	2.496332672619	2
0	22	2.595499339286	0
0	24	2.979119242071	1
0	26	3.061360434226	2
0	29	3.160527100893	0
0	31	3.297928754646	1
0	33	3.390400974072	2
0	36	3.409264241502	2
0	39	3.508430908169	0
0	41	3.55681724543	1
0	43	3.636292418371	2
0	45	3.645010635211	2
0	48	3.718201411581	2
0	50	3.718634848894	2
0	55	3.817801515561	0
0	57	4.522511064256	1
0	59	4.621677730923	0
0	61	4.88248454031	1
0	63	4.981651206977	0
0	65	5.226690085455	1
0	67	5.325856752122	0
0	69	5.698262300115	1
0	71	5.761261052022	2
0	74	5.860427718689	0
0	76	6.413125066201	1
0	78	6.512291732868	0
0	80	6.848558625809	1
0	82	6.889707402211	2
0	85	6.988874068878	0
0	87	7.34792626845	1
0	89	7.365252753071	2
0	92	7.464419419738	0
0	94	7.907785667939	1
0	96	8.006952334606	0
0	98	8.150429330965	1
0	100	8.249595997632	0
0	102	8.610308898905	1
0	104	8.709475565572	0
0	106	9.036022735148	1
0	108	9.135189401815	0
0	110	9.183059380779	1
0	112	9.282226047446	0
0	114	9.514526074645	1
0	116	9.562763079196	2
0	119	9.661929745863	0
0	121	9.734020150082	1
0	123	9.833186816749	0
0	125	10.031349278039	1
0	127	10.130515944706	0
0	129	10.185240047387	1
0	131	10.284406714054	0
0	133	10.41327344547	1
0	135	10.512440112137	0
0	137	11.313836510638	1
0	139	11.413003177305	0
0	141	11.481953036517	1
0	143	11.581119703184	0
0	145	11.842713831297	1
0	147	11.941880497964	0
0	149	12.034140149364	1
0	151	12.133306816031	0
0	153	12.191356766136	1
0	155	12.290523432803	0
0	157	12.341621085721	1
0	159	12.385606482319	2
0	161	12.40143063153	2
0	165	12.500597298197	0
0	167	12.509496712129	1
0	169	12.608663378796	0
0	171	12.662151787584	1
0	173	12.761318454251	0
0	175	13.107169354915	1
0	177	13.189062215219	2
0	180	13.214904498839	2
0	183	13.314071165506	0
0	185	13.363116911543	1
0	187	13.46228357821	0
0	189	13.657619928301	1
0	191	13.756786594968	0
0	193	13.877549358919	1
0	195	13.976716025586	0
0	197	14.257916359209	1
0	199	14.312910048744	2
0	202	14.412076715411	0
0	204	14.543467436105	1
0	206	14.56666341842	2
0	208	14.604977872283	2
0	212	14.70414453895	0
0	214	14.883201742001	1
0	216	14.982368408668	0
0	218	15.225231407393	1
0	220	15.32439807406	0
0	222	15.487954888905	1
0	224	15.587121555572	0
0	226	15.587141353931	1
0	228	15.686308020598	0
0	230	15.804311450614	1
0	232	15.903478117281	0
0	234	15.966746785472	1
0	236	16.065913452139	0
0	238	16.099787569537	1
0	240	16.198954236204	0
0	242	16.562149262918	1
0	244	16.623208989732	2
0	247	16.722375656399	0
0	249	16.853755431914	1
0	251	16.952922098581	0
0	253	17.020718455221	1
0	255	17.119885121888	0
0	257	17.136732389935	1
0	259	17.154935336909	2
0	262	17.254102003576	0
0	264	17.30845144279	1
0	266	17.407618109457	0
0	268	17.472090091681	1
0	270	17.481936765015	2
0	272	17.485304047511	2
0	274	17.5320086388	2
0	279	17.631175305467	0
0	281	17.683971064465	1
0	283	17.691414770224	2
0	286	17.790581436891	0
0	288	18.420622872314	1
0	290	18.519789538981	0
0	292	18.625993919255	1
0	294	18.713459999957	2
0	297	18.812626666624	0
0	299	19.008924481479	1
0	301	19.095149664575	2
0	304	19.194316331242	0
0	306	19.263424001633	1
0	308	19.3625906683	0
0	310	19.431988047941	1
0	312	19.531154714608	0
0	314	19.568948362681	1
0	316	19.65606603864	2
0	319	19.7528038838	2
0	322	19.851970550467	0
0	324	20.467165217344	1
0	326	20.520026489869	2
0	329	20.599542430313	2
0	332	20.69870909698	0
0	334	20.712431973181	1
0	336	20.811598639848	0
0	338	21.078715203752	1
0	340	21.092886492041	2
0	342	21.137088305896	2
0	346	21.220542547881	2
0	349	21.319709214548	0
0	351	21.408942871455	1
0	353	21.508109538122	0
0	355	21.878517728498	1
0	357	21.914346868159	2
0	360	22.013513534826	0
0	362	22.573165583897	1
0	364	22.636292091783	2
0	366	22.664017521233	2
0	369	22.701056970119	2
0	373	22.800223636786	0
0	375	22.847854541934	1
0	377	22.924789213585	2
0	380	23.023955880252	0
0	382	23.260353075615	1
0	384	23.344273558534	2
0	387	23.404819923697	2
0	390	23.503986590364	0
0	392	23.556280778293	1
0	394	23.65544744496	0
0	396	23.70788065091	1
0	398	23.807047317577	0
0	400	23.990683473786	1
0	402	24.089850140453	0
0	404	24.114385328319	1
0	406	24.213551994986	0
0	408	24.40150368644	1
0	410	24.500670353107	0
0	412	24.972664847874	1
0	414	25.071831514541	0
0	416	25.159426301328	1
0	418	25.213059766801	2
0	421	25.312226433468	0
0	423	25.458960652027	1
0	425	25.558127318694	0
0	427	25.642311563536	1
0	429	25.733898901605	2
0	432	25.833065568272	0
0	434	25.852699523381	1
0	436	25.900155139383	2
0	439	25.992954047433	2
0	442	26.0921207141	0
0	444	26.13446242346	1
0	446	26.167012768693	2
0	449	26.26617943536	0
0	451	26.309308058467	1
0	453	26.31451891443	2
0	456	26.413685581097	0
0	458	26.714357528512	1
0	460	26.762615932084	2
0	463	26.822798489625	2
0	465	26.856188274404	2
0	468	26.864878561002	2
0	472	26.964045227669	0
0	474	26.980858387364	1
0	476	27.080025054031	0
0	478	27.427303290322	1
0	480	27.526469956989	0
0	482	27.562264358649	1
0	484	27.661431025316	0
0	486	27.7494817069	1
0	488	27.823180858667	2
0	491	27.898835926188	2
0	494	27.969956234538	2
0	497	28.069122901205	0
0	499	28.395401915384	1
0	501	28.494568582051	0
0	503	28.674663314681	1
0	505	28.773829981348	0
0	507	28.893184448793	1
0	509	28.94685912809	2
0	511	28.989510846048	2
0	515	29.053257899534	2
0	517	29.08555490233	2
0	521	29.184721568997	0
0	523	29.268551070856	1
0	525	29.275709955877	2
0	527	29.276695259158	2
0	531	29.375861925825	0
0	533	29.441681018875	1
0	535	29.477223957787	2
0	538	29.576390624454	0
0	540	29.63758373792	1
0	542	29.736750404587	0
0	544	29.988250364786	1
0	546	30.087417031453	0
0	548	30.595502782097	1
0	550	30.694669448764	0
0	552	30.716606731987	1
0	554	30.797404243129	2
0	557	30.853839712119	2
0	560	30.953006378786	0
0	562	31.27195125411	1
0	564	31.371117920777	0
0	566	31.447806856699	1
0	568	31.546973523366	0
0	570	31.616482614316	1
0	572	31.715649280983	0
0	574	31.728318612624	1
0	576	31.827485279291	0
0	578	32.045790340206	1
0	580	32.10629595379	2
0	583	32.205462620457	0
0	585	32.235229267184	1
0	587	32.334395933851	0
0	589	32.428868861594	1
0	591	32.528035528261	0
0	593	32.635479479233	1
0	595	32.7346461459	0
0	597	32.886221549231	1
0	599	32.948954414826	2
0	602	33.048121081493	0
0	604	34.013561118675	1
0	606	34.11032562307	2
0	609	34.209492289737	0
0	611	34.277225092839	1
0	613	34.344316344206	2
0	616	34.443483010873	0
0	618	34.807661006355	1
0	620	34.906827673022	0
0	622	35.283831133204	1
0	624	35.382997799871	0
0	626	35.901182991909	1
0	628	36.000349658576	0
0	630	36.032117422441	1
0	632	36.131284089108	0
0	634	36.293444391094	1
0	636	36.392611057761	0
0	638	36.482195938592	1
0	640	36.552440829473	2
0	643	36.65160749614	0
0	645	36.992255958981	1
0	647	37.091422625648	0
0	649	37.130338102899	1
0	651	37.229504769566	0
0	653	37.479658827752	1
0	655	37.578825494419	0
0	657	37.939003698198	1
0	659	38.038170364865	0
0	661	38.514063031356	1
0	663	38.613229698023	0
0	665	38.689877156668	1
0	667	38.729639713202	2
0	669	38.740919059736	2
0	673	38.840085726403	0
0	675	39.02069096809	1
0	677	39.119857634757	0
0	679	39.25115202002	1
0	681	39.269131897439	2
0	684	39.368298564106	0
0	686	39.411190689857	1
0	688	39.510357356524	0
0	690	39.702350298083	1
0	692	39.780053803557	2
0	695	39.879220470224	0
0	697	39.938659262989	1
0	699	40.037825929656	0
0	701	40.242028179439	1
0	703	40.341194846106	0
0	705	40.569228609346	1
0	707	40.668395276013	0
0	709	40.906601012383	1
0	711	41.00576767905	0
0	713	41.091612659074	1
0	715	41.097832739727	2
0	718	41.196999406394	0
0	720	41.561536290404	1
0	722	41.624472600451	2
0	724	41.63841136451	2
0	728	41.737578031177	0
0	730	41.979907570199	1
0	732	42.079074236866	0
0	734	42.190470822546	1
0	736	42.289637489213	0
0	738	42.336314922579	1
0	740	42.435481589246	0
0	742	43.287890157956	1
0	744	43.387056824623	0
0	746	43.490345932067	1
0	748	43.589512598734	0
0	750	43.963621689963	1
0	752	44.06278835663	0
0	754	44.741983149396	1
0	756	44.841149816063	0
0	758	44.910307346873	1
0	760	45.00947401354	0
0	762	45.254763279433	1
0	764	45.3539299461	0
0	766	45.629720866289	1
0	768	45.70134156997	2
0	771	45.788844519298	2
0	774	45.888011185965	0
0	776	45.907044016076	1
0	778	46.006210682743	0
0	780	46.089530020037	1
0	782	46.188696686704	0
0	784	46.246274713633	1
0	786	46.261003186489	2
0	789	46.360169853156	0
0	791	46.433223121391	1
0	793	46.532389788058	0
0	795	46.751057384265	1
0	797	46.80890565597	2
0	800	46.908072322637	0
0	802	46.997778186508	1
0	804	47.096944853175	0
0	806	47.112385368072	1
0	808	47.211552034739	0
0	810	47.300315466965	1
0	812	47.399482133632	0
0	814	47.404588162114	1
0	816	47.405370482159	2
0	819	47.504537148826	0
0	821	47.579837608526	1
0	823	47.586946335124	2
0	826	47.686113001791	0
0	828	47.711788627475	1
0	830	47.72464657654	2
0	833	47.818137487898	2
0	836	47.917304154565	0
0	838	48.008692486855	1
0	840	48.107859153522	0
0	842	48.470097820278	1
0	844	48.569264486945	0
0	846	48.685094819297	1
0	848	48.771285425917	2
0	851	48.870452092584	0
0	853	49.718782484665	1
0	855	49.817949151332	0
0	857	49.917900307746	1
0	859	49.952065950203	2
0	862	50.05123261687	0
0	864	50.470203699645	1
0	866	50.533721206731	2
0	869	50.632887873398	0
0	871	51.088313424531	1
0	873	51.187480091198	0
0	875	51.249508535628	1
0	877	51.348675202295	0
0	879	51.411368777751	1
0	881	51.46221184127	2
0	884	51.561378507937	0
0	886	51.677182745991	1
0	888	51.776349412658	0
0	890	52.041707993915	1
0	892	52.140874660582	0
0	894	52.378435598464	1
0	896	52.477602265131	0
0	898	53.067902998583	1
0	900	53.16706966525	0
0	902	53.214376396553	1
0	904	53.31354306322	0
0	906	53.47406604256	1
0	908	53.573232709227	0
0	910	53.709563288764	1
0	912	53.808729955431	0
0	914	53.813425138865	1
0	916	53.912591805532	0
0	918	54.059636268737	1
0	920	54.110911855721	2
0	923	54.210078522388	0
0	925	54.235083368203	1
0	927	54.280910998111	2
0	930	54.380077664778	0
0	932	54.60094787629	1
0	934	54.700114542957	0
0	936	54.808887433826	1
0	938	54.837445689183	2
0	940	54.890882951676	2
0	944	54.990049618343	0
0	946	55.30665598643	1
0	948	55.311505984631	2
0	951	55.410672651298	0
0	953	56.042400171079	1
0	955	56.10033439008	2
0	958	56.199501056747	0
0	960	56.402464899851	1
0	962	56.501631566518	0
0	964	56.559862914025	1
0	966	56.659029580692	0
0	968	57.091426922336	1
0	970	57.190593589003	0
0	972	57.53592076972	1
0	974	57.580479332159	2
0	977	57.643029021089	2
0	980	57.688301948211	2
0	983	57.7852650866	2
0	986	57.884431753267	0
0	988	57.95202868015	1
0	990	58.051195346817	0
0	992	58.208985001884	1
0	994	58.308151668551	0
0	996	58.657798311627	1
0	998	58.756964978294	0
0	1000	58.987543019035	1
0	1002	59.012601689178	2
0	1004	59.041435175587	2
0	1008	59.140601842254	0
0	1010	59.468945869734	1
0	1012	59.548463682092	2
0	1015	59.647630348759	0
0	1017	59.664783280768	1
0	1019	59.763949947435	0
0	1021	59.791030167151	1
0	1023	59.823785461545	2
0	1025	59.841654962216	2
0	1029	59.940821628883	0
0	1031	59.990698737321	1
0	1033	60.089865403988	0
0	1035	60.433264063902	1
0	1037	60.487130885213	2
0	1040	60.58629755188	0
0	1042	60.940428345117	1
0	1044	60.964547304001	2
0	1047	61.063713970668	0
0	1049	61.12344123928	1
0	1051	61.142889752815	2
0	1053	61.215795141838	2
0	1057	61.314961808505	0
0	1059	61.557044925764	1
0	1061	61.656211592431	0
0	1063	61.757362723559	1
0	1065	61.765052643951	2
0	1067	61.795818618874	2
0	1071	61.894985285541	0
0	1073	62.033802708342	1
0	1075	62.073841761419	2
0	1078	62.173008428086	0
0	1080	62.254509252566	1
0	1082	62.353675919233	0
0	1084	62.385325646483	1
0	1086	62.48449231315	0
0	1088	62.548118459983	1
0	1090	62.64728512665	0
0	1092	63.088170389305	1
0	1094	63.187337055972	0
0	1096	63.371384642001	1
0	1098	63.470551308668	0
0	1100	63.735518511597	1
0	1102	63.834685178264	0
0	1104	63.864419102246	1
0	1106	63.963585768913	0
0	1108	64.567226643251	1
0	1110	64.666393309918	0
0	1112	64.868998767376	1
0	1114	64.91693286931	2
0	1116	64.932852852753	2
0	1120	65.03201951942	0
0	1122	65.086466600484	1
0	1124	65.185633267151	0
0	1126	65.562603378935	1
0	1128	65.661770045602	0
0	1130	65.844866304058	1
0	1132	65.944032970725	0
0	1134	66.113588458965	1
0	1136	66.192308246262	2
0	1139	66.291474912929	0
0	1141	66.431411963239	1
0	1143	66.530578629906	0
0	1145	66.614066680402	1
0	1147	66.713233347069	0
0	1149	66.800691952683	1
0	1151	66.89985861935	0
0	1153	66.951102459843	1
0	1155	67.05026912651	0
0	1157	67.066009063188	1
0	1159	67.165175729855	0
0	1161	67.601594827295	1
0	1163	67.700761493962	0
0	1165	67.898745955816	1
0	1167	67.987122395461	2
0	1170	68.086289062128	0
0	1172	68.255353660893	1
0	1174	68.324249139657	2
0	1177	68.423415806324	0
0	1179	68.559101366806	1
0	1181	68.631239848643	2
0	1184	68.6712370526	2
0	1187	68.770403719267	0
0	1189	69.218217676666	1
0	1191	69.279105854457	2
0	1194	69.378272521124	0
0	1196	69.694916328674	1
0	1198	69.794082995341	0
0	1200	69.817096814966	1
0	1202	69.916263481633	0
0	1204	70.518728616795	1
0	1206	70.583166658655	2
0	1209	70.675047423474	2
0	1212	70.774214090141	0
0	1214	70.938373152493	1
0	1216	71.019443358359	2
0	1219	71.118610025026	0
0	1221	71.194029285368	1
0	1223	71.246039757612	2
0	1226	71.306393204836	2
0	1229	71.405559871503	0
0	1231	71.479892516592	1
0	1233	71.552583594465	2
0	1236	71.633865170841	2
0	1239	71.733031837508	0
0	1241	72.020107868031	1
0	1243	72.119274534698	0
0	1245	72.183673285244	1
0	1247	72.282839951911	0
0	1249	72.99906959192	1
0	1251	73.098236258587	0
0	1253	73.246638920585	1
0	1255	73.345805587252	0
0	1257	73.561057153005	1
0	1259	73.660223819672	0
0	1261	73.906693864009	1
0	1263	74.005860530676	0
0	1265	74.216433040848	1
0	1267	74.315599707515	0
0	1269	74.595825452265	1
0	1271	74.596943362981	2
0	1274	74.696110029648	0
0	1276	74.794996929005	1
0	1278	74.862290769239	2
0	1281	74.961457435906	0
0	1283	75.084396702453	1
0	1285	75.18356336912	0
0	1287	75.405920746856	1
0	1289	75.505087413523	0
0	1291	75.574475724047	1
0	1293	75.673642390714	0
0	1295	75.74903332906	1
0	1297	75.760846893535	2
0	1300	75.860013560202	0
0	1302	75.880814363657	1
0	1304	75.951461780945	2
0	1306	75.976505261652	2
0	1309	76.003104693415	2
0	1313	76.102271360082	0
0	1315	76.953283488687	1
0	1317	76.961273169135	2
0	1320	77.060439835802	0
0	1322	77.15790084963	1
0	1324	77.212387239732	2
0	1327	77.311553906399	0
0	1329	77.312578890678	1
0	1331	77.411745557345	0
0	1333	77.861661541626	1
0	1335	77.906564227204	2
0	1338	78.005730893871	0
0	1340	78.15011687132	1
0	1342	78.212400386277	2
0	1345	78.311567052944	0
0	1347	78.433988569626	1
0	1349	78.435406934605	2
0	1351	78.465194208754	2
0	1355	78.564360875421	0
0	1357	78.65905709903	1
0	1359	78.758223765697	0
0	1361	78.776290181809	1
0	1363	78.875456848476	0
0	1365	79.312407774679	1
0	1367	79.411574441346	0
0	1369	79.440514673024	1
0	1371	79.441403922516	2
0	1373	79.477706767578	2
0	1377	79.576873434245	0
0	1379	79.815982534841	1
0	1381	79.915149201508	0
0	1383	80.018316615747	1
0	1385	80.117483282414	0
0	1387	80.431935721718	1
0	1389	80.531102388385	0
0	1391	80.565347329251	1
0	1393	80.658977312499	2
0	1396	80.758143979166	0
0	1398	80.778317271919	1
0	1400	80.857958179002	2
0	1403	80.957124845669	0
0	1405	81.199507957219	1
0	1407	81.298674623886	0
0	1409	81.422711336803	1
0	1411	81.52187800347	0
0	1413	81.544919837437	1
0	1415	81.551373220536	2
0	1418	81.650539887203	0
0	1420	81.930620388056	1
0	1422	82.029787054723	0
0	1424	82.143263526944	1
0	1426	82.242430193611	0
0	1428	82.317750362927	1
0	1430	82.416917029594	0
0	1432	82.882843814773	1
0	1434	82.98201048144	0
0	1436	82.988151737187	1
0	1438	83.087318403854	0
0	1440	83.114146530941	1
0	1442	83.213313197608	0
0	1444	83.284208817037	1
0	1446	83.383375483704	0
0	1448	83.590690716025	1
0	1450	83.689857382692	0
0	1452	83.78076641278	1
0	1454	83.872525912051	2
0	1457	83.971692578718	0
0	1459	84.039186477089	1
0	1461	84.134730541524	2
0	1464	84.184012681685	2
0	1467	84.283179348352	0
0	1469	84.359374887423	1
0	1471	84.406115309536	2
0	1474	84.505281976203	0
0	1476	84.560340252555	1
0	1478	84.651021307608	2
0	1480	84.657558332706	2
0	1484	84.756724999373	0
0	1486	84.868922313671	1
0	1488	84.876867879187	2
0	1490	84.909590273155	2
0	1494	85.008756939822	0
0	1496	85.14883732539	1
0	1498	85.248003992057	0
0	1500	85.322488408161	1
0	1502	85.420793117665	2
0	1505	85.519959784332	0
0	1507	85.734805832474	1
0	1509	85.831882003659	2
0	1512	85.885700279325	2
0	1515	85.984866945992	0
0	1517	86.086440025667	1
0	1519	86.185606692334	0
0	1521	86.459590798343	1
0	1523	86.55875746501	0
0	1525	86.88922729302	1
0	1527	86.941079207767	2
0	1530	87.040245874434	0
0	1532	87.098452219824	1
0	1534	87.181473493786	2
0	1537	87.271784987849	2
0	1540	87.301163978819	2
0	1543	87.400330645486	0
0	1545	87.514115373682	1
0	1547	87.613282040349	0
0	1549	87.628173154937	1
0	1551	87.727339821604	0
0	1553	87.913932810128	1
0	1555	88.013099476795	0
0	1557	88.086687618119	1
0	1559	88.185854284786	0
0	1561	88.451826151615	1
0	1563	88.550992818282	0
0	1565	88.662600720077	1
0	1567	88.742725689174	2
0	1569	88.742745910831	2
0	1573	88.841912577498	0
0	1575	88.967868974174	1
0	1577	89.067035640841	0
0	1579	89.100849020244	1
0	1581	89.200015686911	0
0	1583	89.508293604197	1
0	1585	89.52481258534	2
0	1588	89.623979252007	0
0	1590	89.757867019516	1
0	1592	89.760482427827	2
0	1595	89.859649094494	0
0	1597	90.059158229272	1
0	1599	90.158324895939	0
0	1601	90.200501146167	1
0	1603	90.299667812834	0
0	1605	90.547955178612	1
0	1607	90.647121845279	0
0	1609	90.760138199011	1
0	1611	90.811908752923	2
0	1614	90.91107541959	0
0	1616	91.028027842982	1
0	1618	91.109254429986	2
0	1621	91.180407152785	2
0	1624	91.279573819452	0
0	1626	91.700887365435	1
0	1628	91.800054032102	0
0	1630	92.127306647153	1
0	1632	92.194586058765	2
0	1634	92.222625755716	2
0	1638	92.321792422383	0
0	1640	92.529603712436	1
0	1642	92.628770379103	0
0	1644	92.705243748708	1
0	1646	92.804410415375	0
0	1648	92.938720245052	1
0	1650	93.000870573709	2
0	1653	93.100037240376	0
0	1655	93.329188016614	1
0	1657	93.428354683281	0
0	1659	93.661827452316	1
0	1661	93.675037381001	2
0	1664	93.774204047668	0
0	1666	93.889773228158	1
0	1668	93.988939894825	0
0	1670	94.054396563333	1
0	1672	94.15356323	0
0	1674	94.161215555311	1
0	1676	94.260382221978	0
0	1678	94.39546486826	1
0	1680	94.494631534927	0
0	1682	94.573871938423	1
0	1684	94.664358668634	2
0	1687	94.682649722414	2
0	1690	94.781816389081	0
0	1692	94.987922232457	1
0	1694	95.087088899124	0
0	1696	95.097509323091	1
0	1698	95.175123038631	2
0	1701	95.274289705298	0
0	1703	95.305061557947	1
0	1705	95.357204457959	2
0	1708	95.456371124626	0
0	1710	95.465360488386	1
0	1712	95.560689230635	2
0	1715	95.659855897302	0
0	1717	95.977762697874	1
0	1719	96.076929364541	0
0	1721	96.22871917412	1
0	1723	96.304808053122	2
0	1726	96.403974719789	0
0	1728	96.693001482171	1
0	1730	96.792168148838	0
0	1732	96.883011240172	1
0	1734	96.982177906839	0
0	1736	96.998374037512	1
0	1738	97.097540704179	0
0	1740	97.388340768454	1
0	1742	97.487507435121	0
0	1744	97.497584274633	1
0	1746	97.5967509413	0
0	1748	97.846714603371	1
0	1750	97.933382406395	2
0	1753	97.959948313545	2
0	1756	98.045481399406	2
0	1759	98.144648066073	0
0	1761	98.442741498707	1
0	1763	98.52028484017	2
0	1766	98.619451506837	0
0	1768	98.771867689031	1
0	1770	98.787761250357	2
0	1772	98.835024150401	2
0	1774	98.865744233282	2
0	1779	98.964910899949	0
0	1781	99.001733383048	1
0	1783	99.061121134885	2
0	1785	99.081598950932	2
0	1789	99.180765617599	0
0	1791	99.452056189651	1
0	1793	99.519318675576	2
0	1796	99.618485342243	0
0	1798	100.124823949543	1
0	1800	100.198317901516	2
0	1803	100.297484568183	0
0	1805	100.313021776256	1
0	1807	100.412188442923	0
0	1809	101.363994734457	1
0	1811	101.463161401124	0
0	1813	102.09775501241	1
0	1815	102.158574774714	2
0	1818	102.24296371432	2
0	1821	102.280303594007	2
0	1824	102.379470260674	0
0	1826	102.38804763738	1
0	1828	102.42751571658	2
0	1830	102.455600663892	2
0	1833	102.51244192036	2
0	1837	102.604701072601	2
0	1840	102.703867739268	0
0	1842	102.723188730079	1
0	1844	102.79761629273	2
0	1847	102.896782959397	0
0	1849	103.08074646023	1
0	1851	103.163198671686	2
0	1854	103.262365338353	0
0	1856	103.810044428721	1
0	1858	103.909211095388	0
0	1860	104.27962463043	1
0	1862	104.378791297097	0
0	1864	104.509241068064	1
0	1866	104.608407734731	0
0	1868	105.623043502648	1
0	1870	105.629080493431	2
0	1873	105.723550013017	2
0	1876	105.779257901574	2
0	1878	105.804270040457	2
0	1882	105.903436707124	0
0	1884	106.060025258521	1
0	1886	106.159191925188	0
0	1888	106.18348825633	1
0	1890	106.282654922997	0
0	1892	106.379299677241	1
0	1894	106.478466343908	0
0	1896	106.507674361155	1
0	1898	106.606841027822	0
0	1900	106.652216487298	1
0	1902	106.657297312317	2
0	1905	106.756463978984	0
0	1907	107.125153233204	1
0	1909	107.224319899871	0
0	1911	107.320674703292	1
0	1913	107.419841369959	0
0	1915	107.573743980381	1
0	1917	107.672910647048	0
0	1919	107.708797489941	1
0	1921	107.807964156608	0
0	1923	107.917745282507	1
0	1925	108.016911949174	0
0	1927	108.026278378456	1
0	1929	108.076999215835	2
0	1932	108.176165882502	0
0	1934	108.48681650423	1
0	1936	108.535556300019	2
0	1939	108.634722966686	0
0	1941	108.64279744825	1
0	1943	108.718269327411	2
0	1946	108.817435994078	0
0	1948	108.912881309501	1
0	1950	109.012047976168	0
0	1952	109.216521806737	1
0	1954	109.315688473404	0
0	1956	109.405758971809	1
0	1958	109.486761752023	2
0	1961	109.58592841869	0
0	1963	109.707974166258	1
0	1965	109.807140832925	0
0	1967	109.996867375234	1
0	1969	110.001735254229	2
0	1972	110.100901920896	0
0	1974	110.367664201007	1
0	1976	110.378033384596	2
0	1979	110.477200051263	0
0	1981	110.540828611197	1
0	1983	110.614763955404	2
0	1986	110.713930622071	0
0	1988	111.210319024058	1
0	1990	111.282494283329	2
0	1993	111.381660949996	0
0	1995	111.416548747437	1
0	1997	111.515715414104	0
0	1999	112.069436229036	1
0	2001	112.168602895703	0
0	2003	112.2821456627	1
0	2005	112.308172891225	2
0	2008	112.407339557892	0
0	2010	112.441367663594	1
0	2012	112.540534330261	0
0	2014	112.910133170222	1
0	2016	112.947938802135	2
0	2019	113.047105468802	0
0	2021	113.153587653167	1
0	2023	113.252754319834	0
0	2025	113.338669046661	1
0	2027	113.437835713328	0
0	2029	113.540864962074	1
0	2031	113.558020515903	2
0	2034	113.655580998383	2
0	2037	113.69686058162	2
0	2040	113.796027248287	0
0	2042	114.245733337201	1
0	2044	114.344900003868	0
0	2046	114.414212983115	1
0	2048	114.422261566556	2
0	2051	114.521428233223	0
0	2053	114.827815217927	1
0	2055	114.868778438691	2
0	2058	114.967945105358	0
0	2060	114.976435117311	1
0	2062	115.075601783978	0
0	2064	115.383202671117	1
0	2066	115.482369337784	0
0	2068	115.71281988559	1
0	2070	115.771230353449	2
0	2073	115.870397020116	0
0	2075	115.955980674547	1
0	2077	116.055147341214	0
0	2079	116.102792770005	1
0	2081	116.201959436672	0
0	2083	116.753527715489	1
0	2085	116.852694382156	0
0	2087	117.013583514828	1
0	2089	117.079298394081	2
0	2092	117.178465060748	0
0	2094	117.44362040358	1
0	2096	117.542787070247	0
0	2098	117.818467765189	1
0	2100	117.917634431856	0
0	2102	118.169577297515	1
0	2104	118.235156550434	2
0	2107	118.334323217101	0
0	2109	118.431391210532	1
0	2111	118.530557877199	0
0	2113	118.928655459842	1
0	2115	119.003743453825	2
0	2118	119.102910120492	0
0	2120	119.10571584115	1
0	2122	119.204882507817	0
0	2124	119.296048573723	1
0	2126	119.39521524039	0
0	2128	119.404760459235	1
0	2130	119.473598265215	2
0	2133	119.572764931882	0
0	2135	119.674944005605	1
0	2137	119.753590945166	2
0	2140	119.852757611833	0
0	2142	120.216256298585	1
0	2144	120.242473178968	2
0	2147	120.326624212472	2
0	2150	120.425790879139	0
0	2152	120.838041183215	1
0	2154	120.895660726265	2
0	2157	120.974704878293	2
0	2160	121.07387154496	0
0	2162	121.1639872916	1
0	2164	121.263153958267	0
0	2166	121.287725463227	1
0	2168	121.336399169	2
0	2171	121.435565835667	0
0	2173	121.477045465315	1
0	2175	121.498272458162	2
0	2178	121.597439124829	0
0	2180	121.79848499055	1
0	2182	121.802341654892	2
0	2185	121.901508321559	0
0	2187	122.43080504718	1
0	2189	122.529971713847	0
0	2191	122.9463227239	1
0	2193	122.958420084872	2
0	2195	123.012100786456	2
0	2198	123.050898974499	2
0	2201	123.109727769414	2
0	2205	123.197225961799	2
0	2207	123.202578233206	2
0	2211	123.301744899873	0
0	2213	123.603452649124	1
0	2215	123.702619315791	0
0	2217	124.126171392938	1
0	2219	124.225338059605	0
0	2221	124.851796779923	1
0	2223	124.95096344659	0
0	2225	125.06179281687	1
0	2227	125.160959483537	0
0	2229	125.246331947493	1
0	2231	125.278458391621	2
0	2234	125.377625058288	0
0	2236	125.502150473053	1
0	2238	125.514521207006	2
0	2241	125.613687873673	0
0	2243	125.767050304905	1
0	2245	125.778054381671	2
0	2248	125.877221048338	0
0	2250	125.921565195386	1
0	2252	126.020731862053	0
0	2254	126.085670502272	1
0	2256	126.184837168939	0
0	2258	126.221084295524	1
0	2260	126.239107445393	2
0	2263	126.320450864667	2
0	2266	126.419617531334	0
0	2268	126.789755950257	1
0	2270	126.888922616924	0
0	2272	127.065706158458	1
0	2274	127.164872825125	0
0	2276	127.231355411796	1
0	2278	127.330522078463	0
0	2280	127.332517658043	1
0	2282	127.43168432471	0
0	2284	127.62317229526	1
0	2286	127.722338961927	0
0	2288	127.786873946156	1
0	2290	127.862190953201	2
0	2293	127.961357619868	0
0	2295	128.124057229225	1
0	2297	128.223223895892	0
0	2299	128.50173923449	1
0	2301	128.589666153109	2
0	2304	128.618562448283	2
0	2306	128.672719755749	2
0	2310	128.719840014941	2
0	2312	128.744831582817	2
0	2316	128.843998249484	0
0	2318	128.84588501705	1
0	2320	128.927918747693	2
0	2322	128.944771371302	2
0	2325	128.953047992616	2
0	2328	129.032536490298	2
0	2332	129.131703156965	0
0	2334	129.137679471341	1
0	2336	129.155258162436	2
0	2339	129.254424829103	0
0	2341	129.272725982292	1
0	2343	129.371892648959	0
0	2345	129.628462525543	1
0	2347	129.711278576392	2
0	2350	129.766350257156	2
0	2353	129.865516923823	0
0	2355	130.061629810253	1
0	2357	130.16079647692	0
0	2359	130.174386737115	1
0	2361	130.273553403782	0
0	2363	130.73255685087	1
0	2365	130.831723517537	0
0	2367	131.255310156984	1
0	2369	131.354476823651	0
0	2371	131.500246254521	1
0	2373	131.599412921188	0
0	2375	131.670850304888	1
0	2377	131.770016971555	0
0	2379	131.836802900032	1
0	2381	131.935969566699	0
0	2383	132.239297461648	1
0	2385	132.338464128315	0
0	2387	132.425008577189	1
0	2389	132.524175243856	0
0	2391	132.562062876988	1
0	2393	132.661229543655	0