version 3
run PureAlohaExperiment-17-20250302-16:22:02-14228
attr configname PureAlohaExperiment
attr datetime 20250302-16:22:02
attr datetimef 20250302-162202
attr experiment PureAlohaExperiment
attr inifile omnetpp.ini
attr iterationvars "$numHosts=20, $iaMean=4"
attr iterationvarsd numHosts=20/iaMean=4
attr iterationvarsf numHosts=20,iaMean=4-
attr measurement "$numHosts=20, $iaMean=4"
attr network Aloha
attr processid 14228
attr repetition 0
attr replication #0
attr resultdir results
attr runnumber 17
attr seedset 17
itervar iaMean 4
itervar numHosts 20
config description "Channel utilization in the function of packet generation frequency"
config repeat 1
config sim-time-limit 90min
config Aloha.numHosts 20
config Aloha.host[*].iaTime exponential(4s)
config network Aloha
config Aloha.numHosts 20
config Aloha.slotTime 0s
config Aloha.txRate 9.6kbps
config Aloha.host[*].pkLenBits 952b
config **.x "uniform(0m, 1000m)"
config **.y "uniform(0m, 1000m)"
config **.animationHoldTimeOnCollision 0s
config **.idleAnimationSpeed 1
config **.transmissionEdgeAnimationSpeed 1e-6
config **.midTransmissionAnimationSpeed 1e-1

vector 0 Aloha.server serverChannelState:vector ETV
attr enum IDLE=0,TRANSMISSION=1,COLLISION=2
attr recordingmode vector
attr source channelState
attr title "Channel state"
vector 1 Aloha.server channelUtilization:vector ETV
attr interpolationmode linear
attr recordingmode vector
attr source timeavg(receive)
attr title "channel utilization"
vector 2 Aloha.host[0] radioState:vector ETV
attr enum IDLE=0,TRANSMIT=1
attr recordingmode vector
attr source state
attr title "Radio state"
vector 3 Aloha.host[1] radioState:vector ETV
attr enum IDLE=0,TRANSMIT=1
attr recordingmode vector
attr source state
attr title "Radio state"
vector 4 Aloha.host[2] radioState:vector ETV
attr enum IDLE=0,TRANSMIT=1
attr recordingmode vector
attr source state
attr title "Radio state"
vector 5 Aloha.host[3] radioState:vector ETV
attr enum IDLE=0,TRANSMIT=1
attr recordingmode vector
attr source state
attr title "Radio state"
vector 6 Aloha.host[4] radioState:vector ETV
attr enum IDLE=0,TRANSMIT=1
attr recordingmode vector
attr source state
attr title "Radio state"
vector 7 Aloha.host[5] radioState:vector ETV
attr enum IDLE=0,TRANSMIT=1
attr recordingmode vector
attr source state
attr title "Radio state"
vector 8 Aloha.host[6] radioState:vector ETV
attr enum IDLE=0,TRANSMIT=1
attr recordingmode vector
attr source state
attr title "Radio state"
vector 9 Aloha.host[7] radioState:vector ETV
attr enum IDLE=0,TRANSMIT=1
attr recordingmode vector
attr source state
attr title "Radio state"
vector 10 Aloha.host[8] radioState:vector ETV
attr enum IDLE=0,TRANSMIT=1
attr recordingmode vector
attr source state
attr title "Radio state"
vector 11 Aloha.host[9] radioState:vector ETV
attr enum IDLE=0,TRANSMIT=1
attr recordingmode vector
attr source state
attr title "Radio state"
vector 12 Aloha.host[10] radioState:vector ETV
attr enum IDLE=0,TRANSMIT=1
attr recordingmode vector
attr source state
attr title "Radio state"
vector 13 Aloha.host[11] radioState:vector ETV
attr enum IDLE=0,TRANSMIT=1
attr recordingmode vector
attr source state
attr title "Radio state"
vector 14 Aloha.host[12] radioState:vector ETV
attr enum IDLE=0,TRANSMIT=1
attr recordingmode vector
attr source state
attr title "Radio state"
vector 15 Aloha.host[13] radioState:vector ETV
attr enum IDLE=0,TRANSMIT=1
attr recordingmode vector
attr source state
attr title "Radio state"
vector 16 Aloha.host[14] radioState:vector ETV
attr enum IDLE=0,TRANSMIT=1
attr recordingmode vector
attr source state
attr title "Radio state"
vector 17 Aloha.host[15] radioState:vector ETV
attr enum IDLE=0,TRANSMIT=1
attr recordingmode vector
attr source state
attr title "Radio state"
vector 18 Aloha.host[16] radioState:vector ETV
attr enum IDLE=0,TRANSMIT=1
attr recordingmode vector
attr source state
attr title "Radio state"
vector 19 Aloha.host[17] radioState:vector ETV
attr enum IDLE=0,TRANSMIT=1
attr recordingmode vector
attr source state
attr title "Radio state"
vector 20 Aloha.host[18] radioState:vector ETV
attr enum IDLE=0,TRANSMIT=1
attr recordingmode vector
attr source state
attr title "Radio state"
vector 21 Aloha.host[19] radioState:vector ETV
attr enum IDLE=0,TRANSMIT=1
attr recordingmode vector
attr source state
attr title "Radio state"
0	0	0	0
0	2	0.190285699061	1
0	4	0.227305062889	2
0	7	0.326471729556	0
0	9	0.621491191302	1
0	11	0.654346314221	2
0	14	0.753512980888	0
0	16	0.776845769315	1
0	18	0.876012435982	0
0	20	0.88644888038	1
0	22	0.985615547047	0
0	24	1.21972466533	1
0	26	1.24756436664	2
0	29	1.346731033307	0
0	31	1.383039218505	1
0	33	1.408211262797	2
0	36	1.507377929464	0
0	38	1.572702030266	1
0	40	1.671868696933	0
0	42	2.017040736683	1
0	44	2.074090431997	2
0	47	2.168471579161	2
0	50	2.174664144811	2
0	53	2.273830811478	0
0	55	2.677652347472	1
0	57	2.776819014139	0
0	59	2.87379869255	1
0	61	2.91609523756	2
0	64	2.974997231516	2
0	67	3.074163898183	0
0	69	3.108332131457	1
0	71	3.207498798124	0
0	73	3.277329600637	1
0	75	3.297665439443	2
0	78	3.39683210611	0
0	80	3.658094844799	1
0	82	3.757261511466	0
0	84	4.077894406403	1
0	86	4.17706107307	0
0	88	4.376096062977	1
0	90	4.468710232405	2
0	93	4.557207044443	2
0	96	4.627012059154	2
0	98	4.628951102053	2
0	102	4.72811776872	0
0	104	4.773294965292	1
0	106	4.795629763499	2
0	109	4.894796430166	0
0	111	4.91221070088	1
0	113	5.011377367547	0
0	115	5.063921677535	1
0	117	5.163088344202	0
0	119	5.681875632141	1
0	121	5.738318881396	2
0	124	5.837485548063	0
0	126	5.860638440207	1
0	128	5.959805106874	0
0	130	5.969987227171	1
0	132	6.069153893838	0
0	134	6.189338984651	1
0	136	6.217920146608	2
0	139	6.317086813275	0
0	141	6.562505127475	1
0	143	6.639908318084	2
0	146	6.739074984751	0
0	148	6.857437021867	1
0	150	6.956603688534	0
0	152	7.409501458582	1
0	154	7.508668125249	0
0	156	7.714231404459	1
0	158	7.813398071126	0
0	160	8.653405761335	1
0	162	8.752572428002	0
0	164	8.781164004597	1
0	166	8.880330671264	0
0	168	9.173787654483	1
0	170	9.27295432115	0
0	172	9.457640017918	1
0	174	9.488309855936	2
0	177	9.587476522603	0
0	179	9.730789926685	1
0	181	9.797181375325	2
0	184	9.896348041992	0
0	186	9.939020686398	1
0	188	10.038187353065	0
0	190	10.1718215976	1
0	192	10.270988264267	0
0	194	10.45537048989	1
0	196	10.554537156557	0
0	198	10.597550152689	1
0	200	10.696716819356	0
0	202	10.968557544935	1
0	204	11.052265744542	2
0	207	11.151432411209	0
0	209	11.228739233962	1
0	211	11.327905900629	0
0	213	11.729363595112	1
0	215	11.828530261779	0
0	217	11.83936363198	1
0	219	11.840506431741	2
0	222	11.939673098408	0
0	224	12.21412675651	1
0	226	12.303449178502	2
0	229	12.402615845169	0
0	231	12.558327035081	1
0	233	12.657493701748	0
0	235	12.764187232756	1
0	237	12.863353899423	0
0	239	12.929667718258	1
0	241	13.028834384925	0
0	243	13.211364769105	1
0	245	13.282429305827	2
0	248	13.349579959761	2
0	251	13.388589161691	2
0	254	13.487755828358	0
0	256	13.512029355433	1
0	258	13.6111960221	0
0	260	13.642417206568	1
0	262	13.680279387975	2
0	265	13.779446054642	0
0	267	13.880742747965	1
0	269	13.979909414632	0
0	271	14.002129849197	1
0	273	14.101225478117	2
0	276	14.200392144784	0
0	278	14.614622146183	1
0	280	14.71378881285	0
0	282	14.733083538914	1
0	284	14.832250205581	0
0	286	15.248760305905	1
0	288	15.305918651833	2
0	291	15.4050853185	0
0	293	16.026645596823	1
0	295	16.12581226349	0
0	297	16.196629066597	1
0	299	16.295795733264	0
0	301	16.381377013016	1
0	303	16.480543679683	0
0	305	16.627718921736	1
0	307	16.71232598636	2
0	310	16.811492653027	0
0	312	16.829748202603	1
0	314	16.92891486927	0
0	316	17.204558153788	1
0	318	17.303724820455	0
0	320	17.409668047912	1
0	322	17.508834714579	0
0	324	17.649162415188	1
0	326	17.748329081855	0
0	328	17.96781311358	1
0	330	18.066979780247	0
0	332	18.190790922852	1
0	334	18.289957589519	0
0	336	18.600679942493	1
0	338	18.69984660916	0
0	340	19.502843650989	1
0	342	19.602010317656	0
0	344	19.602667956356	1
0	346	19.626802501039	2
0	349	19.725969167706	0
0	351	19.961796883552	1
0	353	20.060963550219	0
0	355	20.279037015576	1
0	357	20.378203682243	0
0	359	21.04896488519	1
0	361	21.148131551857	0
0	363	21.382994851157	1
0	365	21.461963843553	2
0	368	21.56113051022	0
0	370	21.670631062408	1
0	372	21.769797729075	0
0	374	21.841595464621	1
0	376	21.922512472396	2
0	379	22.021679139063	0
0	381	22.121578794022	1
0	383	22.220745460689	0
0	385	22.250040910994	1
0	387	22.325565140534	2
0	390	22.424731807201	0
0	392	22.476992044114	1
0	394	22.560923733164	2
0	397	22.610069399152	2
0	399	22.614312842715	2
0	402	22.674519602195	2
0	406	22.773686268862	0
0	408	22.895921258924	1
0	410	22.914055872972	2
0	413	23.013222539639	0
0	415	23.403167261968	1
0	417	23.462176131588	2
0	420	23.561342798255	0
0	422	23.812789707212	1
0	424	23.911956373879	0
0	426	24.145708288544	1
0	428	24.244874955211	0
0	430	24.2856166501	1
0	432	24.324297167351	2
0	435	24.423463834018	0
0	437	24.626788396307	1
0	439	24.725955062974	0
0	441	24.994781031944	1
0	443	25.093947698611	0
0	445	25.384438626492	1
0	447	25.483605293159	0
0	449	25.554233479365	1
0	451	25.643316008115	2
0	454	25.742482674782	0
0	456	25.875995483749	1
0	458	25.975162150416	0
0	460	26.104923098322	1
0	462	26.11247718789	2
0	465	26.211643854557	0
0	467	26.494236246405	1
0	469	26.593402913072	0
0	471	26.870023441086	1
0	473	26.908706897409	2
0	476	26.970945632597	2
0	479	27.070112299264	0
0	481	27.220861911298	1
0	483	27.30337459963	2
0	486	27.323506354688	2
0	489	27.422673021355	0
0	491	27.558888880326	1
0	493	27.636538698189	2
0	496	27.673241624724	2
0	498	27.677124840392	2
0	501	27.744540026587	2
0	505	27.843706693254	0
0	507	28.268257183171	1
0	509	28.367423849838	0
0	511	28.468200829525	1
0	513	28.567367496192	0
0	515	28.78760015843	1
0	517	28.886766825097	0
0	519	28.955636257232	1
0	521	28.969409561966	2
0	524	29.068576228633	0
0	526	29.504377028143	1
0	528	29.60354369481	0
0	530	29.774620793826	1
0	532	29.873787460493	0
0	534	30.097705356355	1
0	536	30.196872023022	0
0	538	30.294665344286	1
0	540	30.393832010953	0
0	542	30.441579260864	1
0	544	30.540745927531	0
0	546	30.698716113523	1
0	548	30.79788278019	0
0	550	31.386740129813	1
0	552	31.48590679648	0
0	554	31.859339033553	1
0	556	31.946798981656	2
0	559	31.994452142822	2
0	561	32.005122437805	2
0	563	32.027921203723	2
0	568	32.12708787039	0
0	570	32.257130133676	1
0	572	32.356296800343	0
0	574	32.396837968585	1
0	576	32.496004635252	0
0	578	32.787869664428	1
0	580	32.887036331095	0
0	582	32.926801465582	1
0	584	33.025968132249	0
0	586	33.13111784669	1
0	588	33.230284513357	0
0	590	33.309347582079	1
0	592	33.408514248746	0
0	594	33.92395801188	1
0	596	34.023124678547	0
0	598	34.455495656405	1
0	600	34.488008516445	2
0	603	34.570486937586	2
0	606	34.669653604253	0
0	608	34.712866012675	1
0	610	34.78925329604	2
0	613	34.888419962707	0
0	615	34.989846020925	1
0	617	35.089012687592	0
0	619	35.187482550775	1
0	621	35.263341165627	2
0	624	35.362507832294	0
0	626	35.604820943413	1
0	628	35.646129978715	2
0	631	35.745296645382	0
0	633	35.840424740487	1
0	635	35.939591407154	0
0	637	36.038854747004	1
0	639	36.138021413671	0
0	641	36.278832547447	1
0	643	36.377999214114	0
0	645	36.460522700871	1
0	647	36.559689367538	0
0	649	36.582730029276	1
0	651	36.681896695943	0
0	653	37.100844011573	1
0	655	37.155108221538	2
0	658	37.205773719964	2
0	661	37.304940386631	0
0	663	37.616128783654	1
0	665	37.715295450321	0
0	667	38.028942011956	1
0	669	38.128108678623	0
0	671	38.169097509485	1
0	673	38.201770494786	2
0	676	38.300116199494	2
0	679	38.399282866161	0
0	681	38.87283033453	1
0	683	38.971997001197	0
0	685	39.122676301544	1
0	687	39.216898930406	2
0	690	39.316065597073	0
0	692	39.609537819215	1
0	694	39.690858139022	2
0	697	39.790024805689	0
0	699	39.837736101045	1
0	701	39.936902767712	0
0	703	40.335464551111	1
0	705	40.41756035729	2
0	708	40.516727023957	0
0	710	40.616180160325	1
0	712	40.625923450405	2
0	714	40.698719749171	2
0	718	40.797886415838	0
0	720	41.106516549302	1
0	722	41.205683215969	0
0	724	41.351828963857	1
0	726	41.450995630524	0
0	728	41.459573804332	1
0	730	41.558740470999	0
0	732	41.574583966686	1
0	734	41.673750633353	0
0	736	42.021336046238	1
0	738	42.120502712905	0
0	740	42.2895243882	1
0	742	42.388691054867	0
0	744	42.931943902234	1
0	746	42.952666778419	2
0	749	43.051833445086	0
0	751	43.095820145191	1
0	753	43.194986811858	0
0	755	43.347016526961	1
0	757	43.446183193628	0
0	759	43.455340096898	1
0	761	43.554506763565	0
0	763	44.520479424676	1
0	765	44.619646091343	0
0	767	44.845815047052	1
0	769	44.944981713719	0
0	771	45.417122105983	1
0	773	45.51628877265	0
0	775	45.822071545403	1
0	777	45.92123821207	0
0	779	45.940041100598	1
0	781	46.039207767265	0
0	783	46.528181413972	1
0	785	46.627348080639	0
0	787	46.632161403111	1
0	789	46.731328069778	0
0	791	46.956331976844	1
0	793	46.963975348504	2
0	796	47.063142015171	0
0	798	47.415475728243	1
0	800	47.481532244347	2
0	803	47.580698911014	0
0	805	47.624749708495	1
0	807	47.723916375162	0
0	809	47.802159257848	1
0	811	47.901325924515	0
0	813	48.079187461942	1
0	815	48.178354128609	0
0	817	48.284777109645	1
0	819	48.383943776312	0
0	821	48.652331264751	1
0	823	48.751497931418	0
0	825	49.038397587006	1
0	827	49.120576455542	2
0	830	49.219743122209	0
0	832	49.278356093305	1
0	834	49.377522759972	0
0	836	49.478440694365	1
0	838	49.538521655342	2
0	840	49.574646645608	2
0	844	49.673813312275	0
0	846	49.87745709553	1
0	848	49.976623762197	0
0	850	50.160100113829	1
0	852	50.172896629844	2
0	855	50.272063296511	0
0	857	50.398750674873	1
0	859	50.49791734154	0
0	861	50.603514245408	1
0	863	50.609484325919	2
0	866	50.708650992586	0
0	868	50.77506631954	1
0	870	50.874232986207	0
0	872	51.083745285245	1
0	874	51.116977843664	2
0	877	51.216144510331	0
0	879	51.421773837079	1
0	881	51.424471297764	2
0	883	51.446222931996	2
0	887	51.545389598663	0
0	889	51.571565408496	1
0	891	51.670732075163	0
0	893	51.788480536817	1
0	895	51.887647203484	0
0	897	51.919521667441	1
0	899	51.952770331941	2
0	902	52.03383010958	2
0	905	52.132996776247	0
0	907	52.33623559965	1
0	909	52.435402266317	0
0	911	52.480617672079	1
0	913	52.579784338746	0
0	915	52.581951032726	1
0	917	52.681117699393	0
0	919	53.27749084369	1
0	921	53.376657510357	0
0	923	53.97019732199	1
0	925	54.069363988657	0
0	927	54.227415603192	1
0	929	54.326582269859	0
0	931	54.749083189698	1
0	933	54.848249856365	0
0	935	55.351917283858	1
0	937	55.369818108478	2
0	940	55.468984775145	0
0	942	55.596711337911	1
0	944	55.695878004578	0
0	946	55.754326902263	1
0	948	55.85349356893	0
0	950	55.87112283246	1
0	952	55.970289499127	0
0	954	56.306411476669	1
0	956	56.405578143336	0
0	958	56.425239368236	1
0	960	56.524406034903	0
0	962	56.547345931901	1
0	964	56.646512598568	0
0	966	56.684681397392	1
0	968	56.783848064059	0
0	970	56.875921246483	1
0	972	56.961957194342	2
0	975	56.985648716855	2
0	978	57.084815383522	0
0	980	57.085511897181	1
0	982	57.148457762634	2
0	985	57.247624429301	0
0	987	57.899336535896	1
0	989	57.998503202563	0
0	991	58.072305467966	1
0	993	58.113264891418	2
0	996	58.212431558085	0
0	998	58.315810635314	1
0	1000	58.414977301981	0
0	1002	58.649624485456	1
0	1004	58.655660633678	2
0	1006	58.675616906527	2
0	1010	58.774783573194	0
0	1012	58.779577175048	1
0	1014	58.878743841715	0
0	1016	58.999308853306	1
0	1018	59.098475519973	0
0	1020	59.447412551992	1
0	1022	59.45878865995	2
0	1024	59.501124451123	2
0	1028	59.60029111779	0
0	1030	59.746302573665	1
0	1032	59.845469240332	0
0	1034	60.18949089823	1
0	1036	60.288657564897	0
0	1038	60.294174898817	1
0	1040	60.310177546185	2
0	1043	60.409344212852	0
0	1045	60.440735699397	1
0	1047	60.539902366064	0
0	1049	60.561077735546	1
0	1051	60.660244402213	0
0	1053	60.731472899545	1
0	1055	60.830639566212	0
0	1057	61.064809936639	1
0	1059	61.163976603306	0
0	1061	61.310534603814	1
0	1063	61.409701270481	0
0	1065	61.862588212091	1
0	1067	61.961754878758	0
0	1069	62.115145879084	1
0	1071	62.156814727334	2
0	1074	62.255981394001	0
0	1076	62.317868589761	1
0	1078	62.417035256428	0
0	1080	63.265418177623	1
0	1082	63.320579404537	2
0	1085	63.419746071204	0
0	1087	63.42419040159	1
0	1089	63.486067366882	2
0	1092	63.585234033549	0
0	1094	63.616120942423	1
0	1096	63.71528760909	0
0	1098	63.973915479046	1
0	1100	64.00373693386	2
0	1103	64.076355838825	2
0	1105	64.085147771912	2
0	1107	64.095672356385	2
0	1110	64.172578311925	2
0	1115	64.271744978592	0
0	1117	64.812079568239	1
0	1119	64.911246234906	0
0	1121	64.966489686699	1
0	1123	64.969193006356	2
0	1125	65.018221195784	2
0	1129	65.117387862451	0
0	1131	65.438289787598	1
0	1133	65.537456454265	0
0	1135	65.590010956781	1
0	1137	65.600816560227	2
0	1140	65.699983226894	0
0	1142	65.82202983037	1
0	1144	65.838846000596	2
0	1147	65.938012667263	0
0	1149	66.117878307167	1
0	1151	66.217044973834	0
0	1153	66.245313069897	1
0	1155	66.344479736564	0
0	1157	66.785533864079	1
0	1159	66.814321768661	2
0	1162	66.889990466084	2
0	1165	66.989157132751	0
0	1167	67.070400472082	1
0	1169	67.135649204922	2
0	1172	67.234815871589	0
0	1174	67.382796828109	1
0	1176	67.481963494776	0
0	1178	67.495127525969	1
0	1180	67.50328623223	2
0	1182	67.537337157948	2
0	1186	67.636503824615	0
0	1188	67.67799231434	1
0	1190	67.755798458395	2
0	1193	67.854965125062	0
0	1195	68.039488820571	1
0	1197	68.138655487238	0
0	1199	68.349677198242	1
0	1201	68.353531235264	2
0	1204	68.452697901931	0
0	1206	68.662055438384	1
0	1208	68.761222105051	0
0	1210	69.095922755175	1
0	1212	69.195089421842	0
0	1214	69.218689814999	1
0	1216	69.227479803008	2
0	1218	69.228232579093	2
0	1220	69.28955165565	2
0	1225	69.388718322317	0
0	1227	69.714932018661	1
0	1229	69.814098685328	0
0	1231	69.835102728583	1
0	1233	69.93426939525	0
0	1235	70.509918204625	1
0	1237	70.609084871292	0
0	1239	70.664473144786	1
0	1241	70.763639811453	0
0	1243	70.847822631996	1
0	1245	70.946989298663	0
0	1247	71.050506522526	1
0	1249	71.149673189193	0
0	1251	71.172243091201	1
0	1253	71.271409757868	0
0	1255	71.325258159998	1
0	1257	71.424424826665	0
0	1259	71.830503545586	1
0	1261	71.929670212253	0
0	1263	72.25731943551	1
0	1265	72.356486102177	0
0	1267	72.365316199068	1
0	1269	72.464482865735	0
0	1271	72.790854489381	1
0	1273	72.890021156048	0
0	1275	73.038169449383	1
0	1277	73.13733611605	0
0	1279	73.514742994352	1
0	1281	73.520589422661	2
0	1284	73.619756089328	0
0	1286	73.64370854365	1
0	1288	73.742875210317	0
0	1290	73.846104578154	1
0	1292	73.850871807173	2
0	1295	73.95003847384	0
0	1297	74.18617500411	1
0	1299	74.285341670777	0
0	1301	74.305191733319	1
0	1303	74.404358399986	0
0	1305	74.866462311514	1
0	1307	74.965628978181	0
0	1309	75.508925233314	1
0	1311	75.525755317019	2
0	1314	75.624921983686	0
0	1316	75.643370735776	1
0	1318	75.742537402443	0
0	1320	76.190679714407	1
0	1322	76.261918610698	2
0	1325	76.361085277365	0
0	1327	76.525309751738	1
0	1329	76.624476418405	0
0	1331	76.873010166689	1
0	1333	76.944665176908	2
0	1335	76.950907141212	2
0	1337	76.959090501999	2
0	1339	76.968063210536	2
0	1344	77.051592029726	2
0	1348	77.114041490047	2
0	1351	77.213208156714	0
0	1353	77.440747568984	1
0	1355	77.539914235651	0
0	1357	77.688086005496	1
0	1359	77.787252672163	0
0	1361	78.547583296051	1
0	1363	78.646749962718	0
0	1365	78.646903285381	1
0	1367	78.746069952048	0
0	1369	79.019694961094	1
0	1371	79.118861627761	0
0	1373	79.66657679131	1
0	1375	79.765743457977	0
0	1377	79.953360687539	1
0	1379	80.003858341047	2
0	1381	80.035391504029	2
0	1385	80.132610270782	2
0	1388	80.231776937449	0
0	1390	80.285801634735	1
0	1392	80.384968301402	0
0	1394	80.489628941172	1
0	1396	80.552658984844	2
0	1399	80.651825651511	0
0	1401	80.929950604571	1
0	1403	80.993777676095	2
0	1406	81.092944342762	0
0	1408	81.302423901531	1
0	1410	81.401590568198	0
0	1412	81.539055029748	1
0	1414	81.638221696415	0
0	1416	82.261723859698	1
0	1418	82.360890526365	0
0	1420	83.014754320797	1
0	1422	83.113920987464	0
0	1424	83.501166642003	1
0	1426	83.501726387935	2
0	1429	83.600893054602	0
0	1431	83.850330943487	1
0	1433	83.949497610154	0
0	1435	84.40438242109	1
0	1437	84.455603634206	2
0	1440	84.554770300873	0
0	1442	84.606453551462	1
0	1444	84.640710930274	2
0	1446	84.677374731152	2
0	1449	84.731184534562	2
0	1453	84.830351201229	0
0	1455	84.840150040959	1
0	1457	84.899354728404	2
0	1460	84.998521395071	0
0	1462	85.028230673222	1
0	1464	85.127397339889	0
0	1466	85.393817206083	1
0	1468	85.49298387275	0
0	1470	85.736773580308	1
0	1472	85.779330211315	2
0	1474	85.805115138426	2
0	1478	85.904281805093	0
0	1480	86.154236522506	1
0	1482	86.246605921047	2
0	1485	86.345772587714	0
0	1487	86.497638118523	1
0	1489	86.59680478519	0
0	1491	86.702071808457	1
0	1493	86.801238475124	0
0	1495	87.092786068493	1
0	1497	87.19195273516	0
0	1499	87.477411012503	1
0	1501	87.57657767917	0
0	1503	87.664914726057	1
0	1505	87.764081392724	0
0	1507	87.764706430335	1
0	1509	87.863873097002	0
0	1511	87.944862260165	1
0	1513	88.044028926832	0
0	1515	88.047097596311	1
0	1517	88.07824480709	2
0	1520	88.177411473757	0
0	1522	88.283010235921	1
0	1524	88.341601995633	2
0	1527	88.4407686623	0
0	1529	88.474360593847	1
0	1531	88.573527260514	0
0	1533	88.766797367133	1
0	1535	88.80673736916	2
0	1537	88.85049112617	2
0	1541	88.949657792837	0
0	1543	89.407518260169	1
0	1545	89.471688124318	2
0	1548	89.570854790985	0
0	1550	89.572052257022	1
0	1552	89.607485153361	2
0	1555	89.706651820028	0
0	1557	89.761647519872	1
0	1559	89.860814186539	0
0	1561	90.194977561746	1
0	1563	90.288064605118	2
0	1566	90.387231271785	0
0	1568	90.535952226561	1
0	1570	90.63403585515	2
0	1573	90.733202521817	0
0	1575	90.798824384451	1
0	1577	90.897991051118	0
0	1579	91.690926575629	1
0	1581	91.7862428406	2
0	1584	91.885409507267	0
0	1586	91.968203448761	1
0	1588	92.01849085364	2
0	1591	92.117657520307	0
0	1593	92.159473196567	1
0	1595	92.258639863234	0
0	1597	92.273081843904	1
0	1599	92.372248510571	0
0	1601	92.398522922279	1
0	1603	92.43868377059	2
0	1606	92.537850437257	0
0	1608	92.69226049647	1
0	1610	92.791427163137	0
0	1612	93.912211333782	1
0	1614	94.005219090393	2
0	1616	94.008021115571	2
0	1619	94.029558464983	2
0	1623	94.12872513165	0
0	1625	94.55604413986	1
0	1627	94.638281849741	2
0	1630	94.737448516408	0
0	1632	94.843624798705	1
0	1634	94.872776590429	2
0	1637	94.971943257096	0
0	1639	95.351339780423	1
0	1641	95.360505271523	2
0	1644	95.45967193819	0
0	1646	95.871299145839	1
0	1648	95.970465812506	0
0	1650	96.031328326846	1
0	1652	96.130494993513	0
0	1654	96.384203261158	1
0	1656	96.483369927825	0
0	1658	96.578568123132	1
0	1660	96.677734789799	0
0	1662	96.68614024906	1
0	1664	96.785306915727	0
0	1666	97.009855752691	1
0	1668	97.07622340483	2
0	1671	97.175390071497	0
0	1673	97.432578571696	1
0	1675	97.446468888843	2
0	1677	97.455634842854	2
0	1679	97.520259072037	2
0	1684	97.619425738704	0
0	1686	98.078093411061	1
0	1688	98.177260077728	0
0	1690	98.789302837051	1
0	1692	98.888469503718	0
0	1694	99.361184324207	1
0	1696	99.460350990874	0
0	1698	99.58426825526	1
0	1700	99.647542720046	2
0	1703	99.7337953129	2
0	1706	99.832961979567	0
0	1708	100.801197100435	1
0	1710	100.900363767102	0
0	1712	100.923225439402	1
0	1714	101.022392106069	0
0	1716	101.12294437874	1
0	1718	101.222111045407	0
0	1720	101.282289344381	1
0	1722	101.381456011048	0
0	1724	101.898387698078	1
0	1726	101.997554364745	0
0	1728	102.487422134843	1
0	1730	102.58658880151	0
0	1732	102.895931845104	1
0	1734	102.995098511771	0
0	1736	103.577806468167	1
0	1738	103.594300454022	2
0	1741	103.693467120689	0
0	1743	104.084261026529	1
0	1745	104.183427693196	0
0	1747	104.241226349709	1
0	1749	104.282870908123	2
0	1751	104.300868448941	2
0	1755	104.400035115608	0
0	1757	104.56072720223	1
0	1759	104.659893868897	0
0	1761	105.105180714313	1
0	1763	105.139245916517	2
0	1766	105.238412583184	0
0	1768	105.408919667826	1
0	1770	105.508086334493	0
0	1772	105.538237199075	1
0	1774	105.637403865742	0
0	1776	105.779548069441	1
0	1778	105.871955246156	2
0	1781	105.971121912823	0
0	1783	106.314797908445	1
0	1785	106.335346206	2
0	1788	106.434512872667	0
0	1790	106.691227028553	1
0	1792	106.79039369522	0
0	1794	106.865764389148	1
0	1796	106.962956065785	2
0	1799	107.062122732452	0
0	1801	107.730417769468	1
0	1803	107.829584436135	0
0	1805	107.874661101646	1
0	1807	107.973827768313	0
0	1809	108.003618456688	1
0	1811	108.102785123355	0
0	1813	108.245298477195	1
0	1815	108.344465143862	0
0	1817	108.708506692451	1
0	1819	108.807673359118	0
0	1821	109.067885852895	1
0	1823	109.167052519562	0
0	1825	109.238577832124	1
0	1827	109.337744498791	0
0	1829	109.375972509413	1
0	1831	109.457329629512	2
0	1833	109.470446592928	2
0	1837	109.569613259595	0
0	1839	109.582421289535	1
0	1841	109.681587956202	0
0	1843	109.905711108234	1
0	1845	109.966296133611	2
0	1848	110.065462800278	0
0	1850	110.86118648006	1
0	1852	110.895171610736	2
0	1855	110.994338277403	0
0	1857	111.092361517543	1
0	1859	111.13832080046	2
0	1862	111.237487467127	0
0	1864	111.615545778164	1
0	1866	111.672383165262	2
0	1869	111.771549831929	0
0	1871	111.879931932525	1
0	1873	111.897663042369	2
0	1876	111.996829709036	0
0	1878	112.503310558753	1
0	1880	112.549595334448	2
0	1883	112.648762001115	0
0	1885	113.419500441144	1
0	1887	113.518667107811	0
0	1889	113.654590007999	1
0	1891	113.753756674666	0
0	1893	114.249511838827	1
0	1895	114.348678505494	0
0	1897	114.696342240943	1
0	1899	114.79550890761	0
0	1901	115.187000176076	1
0	1903	115.286166842743	0
0	1905	115.403664192107	1
0	1907	115.502830858774	0
0	1909	115.540541341934	1
0	1911	115.639708008601	0
0	1913	115.771612766196	1
0	1915	115.870779432863	0
0	1917	116.005814057043	1
0	1919	116.10498072371	0
0	1921	116.474869015514	1
0	1923	116.574035682181	0
0	1925	116.924689957322	1
0	1927	117.023856623989	0
0	1929	117.113346233039	1
0	1931	117.114559840802	2
0	1934	117.213726507469	0
0	1936	117.249074484657	1
0	1938	117.348241151324	0
0	1940	117.910309575479	1
0	1942	117.95400483455	2
0	1944	117.962225699484	2
0	1946	117.981167082993	2
0	1951	118.08033374966	0
0	1953	118.258078163681	1
0	1955	118.309417668019	2
0	1958	118.408584334686	0
0	1960	118.484029195835	1
0	1962	118.508246844649	2
0	1965	118.607413511316	0
0	1967	119.146428529904	1
0	1969	119.245595196571	0
0	1971	119.273924792231	1
0	1973	119.373091458898	0
0	1975	119.845312517423	1
0	1977	119.860510635854	2
0	1980	119.959677302521	0
0	1982	120.087176219575	1
0	1984	120.121508777343	2
0	1987	120.22067544401	0
0	1989	120.500321861585	1
0	1991	120.599488528252	0
0	1993	121.05966350997	1
0	1995	121.158830176637	0
0	1997	121.2040714715	1
0	1999	121.303238138167	0
0	2001	121.447242546606	1
0	2003	121.546409213273	0
0	2005	121.672808623325	1
0	2007	121.771975289992	0
0	2009	122.290795297632	1
0	2011	122.389961964299	0
0	2013	122.567119915581	1
0	2015	122.666286582248	0
0	2017	122.699176458294	1
0	2019	122.798343124961	0
0	2021	122.886109113495	1
0	2023	122.979232373626	2
0	2026	123.078399040293	0
0	2028	123.193874706181	1
0	2030	123.258518805964	2
0	2033	123.357685472631	0
0	2035	123.583795307721	1
0	2037	123.682961974388	0
0	2039	123.684648498362	1
0	2041	123.783815165029	0
0	2043	123.888320131517	1
0	2045	123.987486798184	0
0	2047	124.15506596142	1
0	2049	124.168730554092	2
0	2051	124.196855510941	2
0	2055	124.296022177608	0
0	2057	124.347869777422	1
0	2059	124.447036444089	0
0	2061	125.044163964898	1
0	2063	125.116760318494	2
0	2066	125.215926985161	0
0	2068	125.273734409663	1
0	2070	125.287351002761	2
0	2073	125.386517669428	0
0	2075	125.512967128909	1
0	2077	125.612133795576	0
0	2079	125.720731728611	1
0	2081	125.819898395278	0
0	2083	126.025276416895	1
0	2085	126.102532477491	2
0	2088	126.192766894126	2
0	2091	126.291933560793	0
0	2093	126.327660746907	1
0	2095	126.393719930056	2
0	2097	126.422692228378	2
0	2101	126.521858895045	0
0	2103	126.836334529851	1
0	2105	126.935501196518	0
0	2107	127.20949746485	1
0	2109	127.279304686799	2
0	2112	127.357876799626	2
0	2115	127.457043466293	0
0	2117	127.764503794613	1
0	2119	127.86367046128	0
0	2121	128.042035146278	1
0	2123	128.141201812945	0
0	2125	128.278490751019	1
0	2127	128.280450729866	2
0	2130	128.379617396533	0
0	2132	128.393501784751	1
0	2134	128.492668451418	0
0	2136	129.068778241664	1
0	2138	129.167944908331	0
0	2140	129.245011954102	1
0	2142	129.300958944198	2
0	2145	129.345566785316	2
0	2147	129.364148859899	2
0	2151	129.463315526566	0
0	2153	129.645344200419	1
0	2155	129.72872915298	2
0	2158	129.827895819647	0
0	2160	130.807629725771	1
0	2162	130.906796392438	0
0	2164	131.136637973571	1
0	2166	131.235804640238	0
0	2168	131.99537164956	1
0	2170	132.013675664229	2
0	2172	132.030424256073	2
0	2174	132.063526488381	2
0	2178	132.118907812596	2
0	2182	132.218074479263	0
0	2184	132.279123349615	1
0	2186	132.363616065005	2
0	2188	132.367077058907	2
0	2192	132.466243725574	0
0	2194	132.92429116483	1
0	2196	133.004010846766	2
0	2199	133.074486202364	2
0	2202	133.173652869031	0
0	2204	133.178389480272	1
0	2206	133.231140047714	2
0	2209	133.330306714381	0
0	2211	133.610157321202	1
0	2213	133.691738346729	2
0	2216	133.790905013396	0
0	2218	133.969183524632	1
0	2220	134.068350191299	0
0	2222	134.102131113912	1
0	2224	134.201297780579	0
0	2226	134.450389323423	1
0	2228	134.530200295584	2
0	2230	134.534064442014	2
0	2234	134.633231108681	0
0	2236	134.678498581199	1
0	2238	134.777665247866	0
0	2240	134.886382620275	1
0	2242	134.985549286942	0
0	2244	135.14689618995	1
0	2246	135.202288054387	2
0	2249	135.301454721054	0
0	2251	135.412661485969	1
0	2253	135.484960311011	2
0	2256	135.584126977678	0
0	2258	135.664462079523	1
0	2260	135.76362874619	0
0	2262	135.821953071012	1
0	2264	135.921119737679	0
0	2266	135.922262421956	1
0	2268	136.021429088623	0
0	2270	136.22259078811	1
0	2272	136.321757454777	0
0	2274	136.408796297989	1
0	2276	136.474447876336	2
0	2278	136.488259377801	2
0	2282	136.587426044468	0
0	2284	136.784022175166	1
0	2286	136.883188841833	0
0	2288	136.918939196488	1
0	2290	136.940946095549	2
0	2292	137.01753151996	2
0	2296	137.116698186627	0
0	2298	137.390038910054	1
0	2300	137.489205576721	0
0	2302	137.735937102827	1
0	2304	137.835103769494	0
0	2306	137.842398385185	1