version 3
run PureAlohaExperiment-11-20250302-16:22:01-14228
attr configname PureAlohaExperiment
attr datetime 20250302-16:22:01
attr datetimef 20250302-162201
attr experiment PureAlohaExperiment
attr inifile omnetpp.ini
attr iterationvars "$numHosts=15, $iaMean=5"
attr iterationvarsd numHosts=15/iaMean=5
attr iterationvarsf numHosts=15,iaMean=5-
attr measurement "$numHosts=15, $iaMean=5"
attr network Aloha
attr processid 14228
attr repetition 0
attr replication #0
attr resultdir results
attr runnumber 11
attr seedset 11
itervar iaMean 5
itervar numHosts 15
config description "Channel utilization in the function of packet generation frequency"
config repeat 1
config sim-time-limit 90min
config Aloha.numHosts 15
config Aloha.host[*].iaTime exponential(5s)
config network Aloha
config Aloha.numHosts 20
config Aloha.slotTime 0s
config Aloha.txRate 9.6kbps
config Aloha.host[*].pkLenBits 952b
config **.x "uniform(0m, 1000m)"
config **.y "uniform(0m, 1000m)"
config **.animationHoldTimeOnCollision 0s
config **.idleAnimationSpeed 1
config **.transmissionEdgeAnimationSpeed 1e-6
config **.midTransmissionAnimationSpeed 1e-1

vector 0 Aloha.server serverChannelState:vector ETV
attr enum IDLE=0,TRANSMISSION=1,COLLISION=2
attr recordingmode vector
attr source channelState
attr title "Channel state"
vector 1 Aloha.server channelUtilization:vector ETV
attr interpolationmode linear
attr recordingmode vector
attr source timeavg(receive)
attr title "channel utilization"
vector 2 Aloha.host[0] radioState:vector ETV
attr enum IDLE=0,TRANSMIT=1
attr recordingmode vector
attr source state
attr title "Radio state"
vector 3 Aloha.host[1] radioState:vector ETV
attr enum IDLE=0,TRANSMIT=1
attr recordingmode vector
attr source state
attr title "Radio state"
vector 4 Aloha.host[2] radioState:vector ETV
attr enum IDLE=0,TRANSMIT=1
attr recordingmode vector
attr source state
attr title "Radio state"
vector 5 Aloha.host[3] radioState:vector ETV
attr enum IDLE=0,TRANSMIT=1
attr recordingmode vector
attr source state
attr title "Radio state"
vector 6 Aloha.host[4] radioState:vector ETV
attr enum IDLE=0,TRANSMIT=1
attr recordingmode vector
attr source state
attr title "Radio state"
vector 7 Aloha.host[5] radioState:vector ETV
attr enum IDLE=0,TRANSMIT=1
attr recordingmode vector
attr source state
attr title "Radio state"
vector 8 Aloha.host[6] radioState:vector ETV
attr enum IDLE=0,TRANSMIT=1
attr recordingmode vector
attr source state
attr title "Radio state"
vector 9 Aloha.host[7] radioState:vector ETV
attr enum IDLE=0,TRANSMIT=1
attr recordingmode vector
attr source state
attr title "Radio state"
vector 10 Aloha.host[8] radioState:vector ETV
attr enum IDLE=0,TRANSMIT=1
attr recordingmode vector
attr source state
attr title "Radio state"
vector 11 Aloha.host[9] radioState:vector ETV
attr enum IDLE=0,TRANSMIT=1
attr recordingmode vector
attr source state
attr title "Radio state"
vector 12 Aloha.host[10] radioState:vector ETV
attr enum IDLE=0,TRANSMIT=1
attr recordingmode vector
attr source state
attr title "Radio state"
vector 13 Aloha.host[11] radioState:vector ETV
attr enum IDLE=0,TRANSMIT=1
attr recordingmode vector
attr source state
attr title "Radio state"
vector 14 Aloha.host[12] radioState:vector ETV
attr enum IDLE=0,TRANSMIT=1
attr recordingmode vector
attr source state
attr title "Radio state"
vector 15 Aloha.host[13] radioState:vector ETV
attr enum IDLE=0,TRANSMIT=1
attr recordingmode vector
attr source state
attr title "Radio state"
vector 16 Aloha.host[14] radioState:vector ETV
attr enum IDLE=0,TRANSMIT=1
attr recordingmode vector
attr source state
attr title "Radio state"
0	0	0	0
0	2	0.103483609885	1
0	4	0.127357131809	2
0	7	0.226523798476	0
0	9	0.62066624606	1
0	11	0.719832912727	0
0	13	0.818534341545	1
0	15	0.859358358036	2
0	18	0.958525024703	0
0	20	1.051772575339	1
0	22	1.150939242006	0
0	24	1.343489656077	1
0	26	1.356139846404	2
0	29	1.455306513071	0
0	31	1.801475637547	1
0	33	1.900642304214	0
0	35	1.901673676064	1
0	37	1.919490368609	2
0	40	2.018657035276	0
0	42	2.112737439925	1
0	44	2.211904106592	0
0	46	2.287257801142	1
0	48	2.386424467809	0
0	50	2.616145883293	1
0	52	2.645904260402	2
0	55	2.745070927069	0
0	57	5.200231884142	1
0	59	5.283430908964	2
0	62	5.382597575631	0
0	64	5.479587623345	1
0	66	5.578754290012	0
0	68	6.031055856203	1
0	70	6.13022252287	0
0	72	7.114371797808	1
0	74	7.213538464475	0
0	76	7.387532181442	1
0	78	7.486698848109	0
0	80	7.527717152968	1
0	82	7.599890089476	2
0	85	7.699056756143	0
0	87	7.844677288576	1
0	89	7.943843955243	0
0	91	8.303814723207	1
0	93	8.402981389874	0
0	95	8.526314898682	1
0	97	8.625481565349	0
0	99	8.897167963248	1
0	101	8.996334629915	0
0	103	9.66507631392	1
0	105	9.764242980587	0
0	107	10.695490683229	1
0	109	10.794657349896	0
0	111	11.229462894988	1
0	113	11.328629561655	0
0	115	11.529545695217	1
0	117	11.628712361884	0
0	119	11.645979638781	1
0	121	11.745146305448	0
0	123	11.820859607839	1
0	125	11.827099845054	2
0	127	11.905321888018	2
0	131	12.004488554685	0
0	133	12.224266462224	1
0	135	12.255290777392	2
0	138	12.354457444059	0
0	140	12.699989369533	1
0	142	12.709212518208	2
0	145	12.808379184875	0
0	147	13.162132085058	1
0	149	13.261298751725	0
0	151	13.446405263504	1
0	153	13.545571930171	0
0	155	13.733783925114	1
0	157	13.832950591781	0
0	159	14.114141391046	1
0	161	14.197861464422	2
0	164	14.243396827969	2
0	167	14.342563494636	0
0	169	14.414388302238	1
0	171	14.459418468748	2
0	174	14.558585135415	0
0	176	14.59105903877	1
0	178	14.676458373103	2
0	181	14.718081648014	2
0	184	14.817248314681	0
0	186	15.184964130158	1
0	188	15.284130796825	0
0	190	16.011336809248	1
0	192	16.044023160904	2
0	195	16.143189827571	0
0	197	17.527646058584	1
0	199	17.544636524207	2
0	202	17.643803190874	0
0	204	17.903851952404	1
0	206	18.003018619071	0
0	208	18.455134564191	1
0	210	18.554301230858	0
0	212	19.704014326096	1
0	214	19.803180992763	0
0	216	20.217323254028	1
0	218	20.236116168835	2
0	220	20.24605773269	2
0	224	20.345224399357	0
0	226	20.727709251341	1
0	228	20.826875918008	0
0	230	21.843935640146	1
0	232	21.943102306813	0
0	234	22.319201953867	1
0	236	22.361556841428	2
0	238	22.412615750036	2
0	242	22.511782416703	0
0	244	22.616537060605	1
0	246	22.683293769329	2
0	249	22.743128963832	2
0	252	22.833541298638	2
0	255	22.932707965305	0
0	257	23.200924317974	1
0	259	23.300090984641	0
0	261	24.509197892259	1
0	263	24.608364558926	0
0	265	24.644772118156	1
0	267	24.715739907177	2
0	270	24.814906573844	0
0	272	24.816385613666	1
0	274	24.915552280333	0
0	276	25.36535228767	1
0	278	25.464518954337	0
0	280	26.480731286523	1
0	282	26.57989795319	0
0	284	26.953441506533	1
0	286	27.0526081732	0
0	288	27.21780485538	1
0	290	27.316971522047	0
0	292	27.418515297254	1
0	294	27.426139142606	2
0	297	27.525305809273	0
0	299	29.609473945405	1
0	301	29.708640612072	0
0	303	29.73692866308	1
0	305	29.836095329747	0
0	307	29.850715310886	1
0	309	29.949881977553	0
0	311	30.063391409905	1
0	313	30.142768904153	2
0	316	30.215420443155	2
0	319	30.314587109822	0
0	321	30.442382252079	1
0	323	30.541548918746	0
0	325	30.622183528207	1
0	327	30.647670887142	2
0	329	30.699356125486	2
0	333	30.798522792153	0
0	335	30.926466074187	1
0	337	31.025632740854	0
0	339	31.448768438219	1
0	341	31.547935104886	0
0	343	32.092799774617	1
0	345	32.191966441284	0
0	347	33.691908938434	1
0	349	33.791075605101	0
0	351	34.223351792034	1
0	353	34.322518458701	0
0	355	34.604957107429	1
0	357	34.704123774096	0
0	359	35.464804878514	1
0	361	35.5285398513	2
0	364	35.574861515265	2
0	367	35.674028181932	0
0	369	35.885950763035	1
0	371	35.985117429702	0
0	373	36.49065076098	1
0	375	36.589817427647	0
0	377	36.998026509163	1
0	379	37.09719317583	0
0	381	37.179914895641	1
0	383	37.23406503313	2
0	386	37.333231699797	0
0	388	37.709090861793	1
0	390	37.802504102833	2
0	393	37.9016707695	0
0	395	37.922755581808	1
0	397	38.021922248475	0
0	399	38.411740733754	1
0	401	38.510907400421	0
0	403	38.870706083306	1
0	405	38.969872749973	0
0	407	38.972720042234	1
0	409	39.067537220278	2
0	412	39.096518277164	2
0	415	39.195684943831	0
0	417	39.236317478954	1
0	419	39.335484145621	0
0	421	39.555012668771	1
0	423	39.617372920979	2
0	426	39.716539587646	0
0	428	39.823391286916	1
0	430	39.834640808367	2
0	433	39.933807475034	0
0	435	40.90347059809	1
0	437	41.002637264757	0
0	439	41.02439563469	1
0	441	41.123562301357	0
0	443	41.22842905728	1
0	445	41.318826986424	2
0	448	41.417993653091	0
0	450	42.11987909341	1
0	452	42.219045760077	0
0	454	42.349815626634	1
0	456	42.448982293301	0
0	458	42.718427644852	1
0	460	42.817594311519	0
0	462	43.374783046851	1
0	464	43.473949713518	0
0	466	43.709298849783	1
0	468	43.80846551645	0
0	470	43.835689301304	1
0	472	43.845962903377	2
0	474	43.919939305117	2
0	478	44.019105971784	0
0	480	44.59188905307	1
0	482	44.691055719737	0
0	484	44.813632703295	1
0	486	44.851584104588	2
0	489	44.950750771255	0
0	491	44.983910605868	1
0	493	45.083077272535	0
0	495	45.86763319359	1
0	497	45.966799860257	0
0	499	46.294988163134	1
0	501	46.394154829801	0
0	503	46.668243440249	1
0	505	46.767410106916	0
0	507	46.810311484401	1
0	509	46.909478151068	0
0	511	47.457196361718	1
0	513	47.556363028385	0
0	515	47.959538463973	1
0	517	47.981748242824	2
0	520	48.080914909491	0
0	522	48.649036330083	1
0	524	48.74820299675	0
0	526	50.304499598761	1
0	528	50.389242888008	2
0	531	50.488409554675	0
0	533	50.525991495319	1
0	535	50.551839022056	2
0	537	50.59178156618	2
0	540	50.644406057724	2
0	544	50.743572724391	0
0	546	50.781153406971	1
0	548	50.880320073638	0
0	550	51.257974493437	1
0	552	51.357141160104	0
0	554	51.370249292925	1
0	556	51.469415959592	0
0	558	51.679563452796	1
0	560	51.778730119463	0
0	562	52.054439348808	1
0	564	52.153606015475	0
0	566	52.348881281072	1
0	568	52.448047947739	0
0	570	52.571017970687	1
0	572	52.670184637354	0
0	574	52.884783456206	1
0	576	52.983950122873	0
0	578	53.369313744718	1
0	580	53.468480411385	0
0	582	54.146315647186	1
0	584	54.213474389858	2
0	587	54.312641056525	0
0	589	54.363048669002	1
0	591	54.462215335669	0
0	593	54.834919334189	1
0	595	54.934086000856	0
0	597	54.943574985407	1
0	599	55.042741652074	0
0	601	55.137466248273	1
0	603	55.23663291494	0
0	605	55.316765589776	1
0	607	55.321803946862	2
0	609	55.355874994501	2
0	613	55.455041661168	0
0	615	55.704884257553	1
0	617	55.80405092422	0
0	619	55.895264161649	1
0	621	55.994430828316	0
0	623	56.063636068802	1
0	625	56.162802735469	0
0	627	56.261076039458	1
0	629	56.31193671243	2
0	632	56.411103379097	0
0	634	56.442385101861	1
0	636	56.541551768528	0
0	638	56.731996193703	1
0	640	56.83116286037	0
0	642	57.061532248426	1
0	644	57.160698915093	0
0	646	57.186067308095	1
0	648	57.212166103111	2
0	650	57.245415350347	2
0	654	57.344582017014	0
0	656	57.925972441186	1
0	658	57.968563445337	2
0	661	58.067730112004	0
0	663	58.367664666326	1
0	665	58.466030516597	2
0	668	58.565197183264	0
0	670	59.593924860866	1
0	672	59.693091527533	0
0	674	59.887817491036	1
0	676	59.925957882121	2
0	679	60.025124548788	0
0	681	60.121649475602	1
0	683	60.220816142269	0
0	685	61.051397320171	1
0	687	61.150563986838	0
0	689	61.311661330502	1
0	691	61.410827997169	0
0	693	62.034374479787	1
0	695	62.133541146454	0
0	697	62.218477780558	1
0	699	62.317644447225	0
0	701	62.718886693856	1
0	703	62.818053360523	0
0	705	63.482540931294	1
0	707	63.56515042273	2
0	710	63.664317089397	0
0	712	63.812712489979	1
0	714	63.911879156646	0
0	716	64.623946553216	1
0	718	64.723113219883	0
0	720	64.965129804456	1
0	722	65.064296471123	0
0	724	65.348991499405	1
0	726	65.399049314041	2
0	729	65.498215980708	0
0	731	65.503077243298	1
0	733	65.602243909965	0
0	735	66.452655551411	1
0	737	66.540376097252	2
0	740	66.639542763919	0
0	742	66.653587135762	1
0	744	66.752753802429	0
0	746	66.975025414989	1
0	748	67.074192081656	0
0	750	67.387573384193	1
0	752	67.48674005086	0
0	754	68.323855580236	1
0	756	68.382633737611	2
0	759	68.481800404278	0
0	761	68.758641012162	1
0	763	68.857807678829	0
0	765	69.106364642192	1
0	767	69.205531308859	0
0	769	69.914057301715	1
0	771	70.013223968382	0
0	773	70.044776220738	1
0	775	70.143942887405	0
0	777	70.514953995392	1
0	779	70.614120662059	0
0	781	71.465764161485	1
0	783	71.564930828152	0
0	785	71.826771426221	1
0	787	71.925938092888	0
0	789	72.037408672758	1
0	791	72.136575339425	0
0	793	72.552028260709	1
0	795	72.651194927376	0
0	797	73.502733652297	1
0	799	73.601900318964	0
0	801	73.653911800871	1
0	803	73.753078467538	0
0	805	74.012872739053	1
0	807	74.11203940572	0
0	809	74.235975365255	1
0	811	74.335142031922	0
0	813	74.432453466475	1
0	815	74.531620133142	0
0	817	75.402892270925	1
0	819	75.502058937592	0
0	821	75.97224883435	1
0	823	76.071415501017	0
0	825	76.114631439442	1
0	827	76.213798106109	0
0	829	76.40781350264	1
0	831	76.506980169307	0
0	833	76.847660605411	1
0	835	76.946827272078	0
0	837	77.205102868511	1
0	839	77.304269535178	0
0	841	77.4622877316	1
0	843	77.561454398267	0
0	845	77.783960846551	1
0	847	77.883127513218	0
0	849	78.232335722077	1
0	851	78.291647698927	2
0	854	78.390814365594	0
0	856	78.400667338276	1
0	858	78.499834004943	0
0	860	78.745990182336	1
0	862	78.828877567944	2
0	865	78.928044234611	0
0	867	79.420323076443	1
0	869	79.51948974311	0
0	871	79.692817517534	1
0	873	79.791984184201	0
0	875	80.5408830749	1
0	877	80.640049741567	0
0	879	80.82436892825	1
0	881	80.923535594917	0
0	883	81.226839724999	1
0	885	81.326006391666	0
0	887	81.835568054444	1
0	889	81.934734721111	0
0	891	82.190484062904	1
0	893	82.289650729571	0
0	895	82.87190874536	1
0	897	82.895090174341	2
0	900	82.994256841008	0
0	902	83.415695334566	1
0	904	83.514862001233	0
0	906	84.265167871528	1
0	908	84.287219176334	2
0	910	84.317337361542	2
0	914	84.416504028209	0
0	916	84.417365365065	1
0	918	84.417994977678	2
0	921	84.517161644345	0
0	923	85.397689231751	1
0	925	85.496855898418	0
0	927	85.80489742205	1
0	929	85.863375824935	2
0	932	85.962542491602	0
0	934	86.002994388931	1
0	936	86.102161055598	0
0	938	86.161465047965	1
0	940	86.230573141589	2
0	943	86.329739808256	0
0	945	86.745340540923	1
0	947	86.84450720759	0
0	949	87.521266577793	1
0	951	87.62043324446	0
0	953	87.804713745785	1
0	955	87.903880412452	0
0	957	88.03730138478	1
0	959	88.072649180015	2
0	962	88.171815846682	0
0	964	88.346717723484	1
0	966	88.354283849468	2
0	969	88.453450516135	0
0	971	88.68822832261	1
0	973	88.7626006913	2
0	976	88.806417995228	2
0	979	88.905584661895	0
0	981	89.085531313115	1
0	983	89.184697979782	0
0	985	89.370672659894	1
0	987	89.469839326561	0
0	989	89.755581420142	1
0	991	89.854748086809	0
0	993	90.367786285604	1
0	995	90.386009599987	2
0	998	90.485176266654	0
0	1000	90.757102670457	1
0	1002	90.856269337124	0
0	1004	90.912764967334	1
0	1006	91.011931634001	0
0	1008	92.024360964166	1
0	1010	92.08660587382	2
0	1013	92.185772540487	0
0	1015	92.337510286663	1
0	1017	92.43667695333	0
0	1019	92.898133729182	1
0	1021	92.997300395849	0
0	1023	93.280601058259	1
0	1025	93.379767724926	0
0	1027	93.442661945772	1
0	1029	93.541828612439	0
0	1031	94.271477240687	1
0	1033	94.370643907354	0
0	1035	94.37571343469	1
0	1037	94.474880101357	0
0	1039	94.531124018629	1
0	1041	94.630290685296	0
0	1043	95.017756463652	1
0	1045	95.07602876912	2
0	1048	95.175195435787	0
0	1050	95.191909497316	1
0	1052	95.217012270821	2
0	1054	95.242180587057	2
0	1058	95.341347253724	0
0	1060	95.569249197315	1
0	1062	95.668415863982	0
0	1064	95.849593487186	1
0	1066	95.948760153853	0
0	1068	96.520382236936	1
0	1070	96.537321868539	2
0	1072	96.540685924106	2
0	1076	96.639852590773	0
0	1078	97.683766900103	1
0	1080	97.78293356677	0
0	1082	97.910681894372	1
0	1084	98.009848561039	0
0	1086	98.304682105003	1
0	1088	98.40384877167	0
0	1090	98.718690940371	1
0	1092	98.817857607038	0
0	1094	99.528805218497	1
0	1096	99.627971885164	0
0	1098	99.663981737197	1
0	1100	99.763148403864	0
0	1102	99.854804333943	1
0	1104	99.95397100061	0
0	1106	100.227201487272	1
0	1108	100.326368153939	0
0	1110	101.03583084446	1
0	1112	101.134997511127	0
0	1114	101.270430025119	1
0	1116	101.369596691786	0
0	1118	101.826935522763	1
0	1120	101.92610218943	0
0	1122	102.46896134017	1
0	1124	102.568128006837	0
0	1126	102.912003724014	1
0	1128	103.011170390681	0
0	1130	103.236987790298	1
0	1132	103.301493386088	2
0	1135	103.400660052755	0
0	1137	103.79989495802	1
0	1139	103.899061624687	0
0	1141	104.579650749201	1
0	1143	104.678817415868	0
0	1145	104.768412586838	1
0	1147	104.80070222959	2
0	1150	104.899868896257	0
0	1152	105.076533946809	1
0	1154	105.175700613476	0
0	1156	105.343251915221	1
0	1158	105.442418581888	0
0	1160	105.714445389332	1
0	1162	105.813612055999	0
0	1164	105.894202722739	1
0	1166	105.925350621664	2
0	1169	106.024517288331	0
0	1171	106.318306865788	1
0	1173	106.417473532455	0
0	1175	106.586978033438	1
0	1177	106.686144700105	0
0	1179	106.825583902423	1
0	1181	106.914785327539	2
0	1184	107.013951994206	0
0	1186	108.22930431727	1
0	1188	108.328470983937	0
0	1190	108.631856944787	1
0	1192	108.731023611454	0
0	1194	108.732761439395	1
0	1196	108.831928106062	0
0	1198	110.043773822938	1
0	1200	110.08953987684	2
0	1202	110.100761103675	2
0	1206	110.199927770342	0
0	1208	110.759045489548	1
0	1210	110.858212156215	0
0	1212	111.874211090209	1
0	1214	111.88357754067	2
0	1216	111.916273704446	2
0	1220	112.015440371113	0
0	1222	112.921811890662	1
0	1224	112.950082324548	2
0	1227	113.049248991215	0
0	1229	114.451859942492	1
0	1231	114.551026609159	0
0	1233	114.82537012663	1
0	1235	114.902215361483	2
0	1238	115.00138202815	0
0	1240	115.075988389911	1
0	1242	115.175155056578	0
0	1244	115.707744465373	1
0	1246	115.80691113204	0
0	1248	116.01045752638	1
0	1250	116.051194561602	2
0	1252	116.058629868339	2
0	1256	116.157796535006	0
0	1258	116.18063548307	1
0	1260	116.270793163152	2
0	1263	116.369959829819	0
0	1265	116.743321231683	1
0	1267	116.84248789835	0
0	1269	117.061208950342	1
0	1271	117.130498393748	2
0	1274	117.229665060415	0
0	1276	117.476815480582	1
0	1278	117.575982147249	0
0	1280	117.927241825969	1
0	1282	118.026408492636	0
0	1284	118.17841559817	1
0	1286	118.270373917815	2
0	1289	118.369540584482	0
0	1291	118.610615074611	1
0	1293	118.709418649169	2
0	1296	118.808585315836	0
0	1298	118.877797352419	1
0	1300	118.976964019086	0
0	1302	119.246725461358	1
0	1304	119.345892128025	0
0	1306	119.486514466318	1
0	1308	119.585681132985	0
0	1310	120.300592327553	1
0	1312	120.39975899422	0
0	1314	120.572905308227	1
0	1316	120.582739110314	2
0	1319	120.681905776981	0
0	1321	120.770206333797	1
0	1323	120.869373000464	0
0	1325	120.957547702088	1
0	1327	121.020338227109	2
0	1330	121.119504893776	0
0	1332	121.876277870411	1
0	1334	121.975444537078	0
0	1336	121.983025635949	1
0	1338	122.082192302616	0
0	1340	122.125834676393	1
0	1342	122.22500134306	0
0	1344	122.412525151435	1
0	1346	122.458072379215	2
0	1349	122.557239045882	0
0	1351	122.819249928685	1
0	1353	122.918416595352	0
0	1355	123.146378442122	1
0	1357	123.245545108789	0
0	1359	124.198620398062	1
0	1361	124.27539184784	2
0	1364	124.374558514507	0
0	1366	125.283559309955	1
0	1368	125.33099885826	2
0	1370	125.377820594361	2
0	1374	125.476987261028	0
0	1376	125.921685226105	1
0	1378	125.932368639779	2
0	1380	125.954030408311	2
0	1384	126.053197074978	0
0	1386	126.425190795271	1
0	1388	126.524357461938	0
0	1390	126.633685109834	1
0	1392	126.732851776501	0
0	1394	127.185492889352	1
0	1396	127.284659556019	0
0	1398	127.49060640804	1
0	1400	127.589773074707	0
0	1402	127.731591362066	1
0	1404	127.798183412388	2
0	1406	127.822626989499	2
0	1410	127.921793656166	0
0	1412	128.108545519243	1
0	1414	128.20771218591	0
0	1416	128.220856822764	1
0	1418	128.222300788645	2
0	1421	128.321467455312	0
0	1423	128.596824454357	1
0	1425	128.695991121024	0
0	1427	128.717945194852	1
0	1429	128.758907895032	2
0	1432	128.844127015629	2
0	1435	128.943293682296	0
0	1437	129.031090872253	1
0	1439	129.13025753892	0
0	1441	129.216241576828	1
0	1443	129.29190956589	2
0	1446	129.391076232557	0
0	1448	129.512482681941	1
0	1450	129.611649348608	0
0	1452	130.088294282418	1
0	1454	130.152622736321	2
0	1457	130.219397949226	2
0	1460	130.318564615893	0
0	1462	131.567389630446	1
0	1464	131.666556297113	0
0	1466	131.835750282555	1
0	1468	131.934916949222	0
0	1470	132.55620987701	1
0	1472	132.637915127994	2
0	1475	132.737081794661	0
0	1477	132.873853277653	1
0	1479	132.936673355731	2
0	1482	133.035840022398	0
0	1484	133.921061469081	1
0	1486	133.981265742961	2
0	1489	134.080432409628	0
0	1491	134.307769076992	1
0	1493	134.406935743659	0
0	1495	134.49579040994	1
0	1497	134.594957076607	0
0	1499	135.462251524712	1
0	1501	135.561418191379	0
0	1503	135.725322432368	1
0	1505	135.768112069081	2
0	1507	135.779350404317	2
0	1511	135.878517070984	0
0	1513	135.901403979633	1
0	1515	136.0005706463	0
0	1517	136.021639365711	1
0	1519	136.043099736167	2
0	1522	136.142266402834	0
0	1524	136.601250430101	1
0	1526	136.700417096768	0
0	1528	137.312614992261	1
0	1530	137.411781658928	0
0	1532	137.719668082937	1
0	1534	137.808627230285	2
0	1537	137.907793896952	0
0	1539	138.211984278615	1
0	1541	138.311150945282	0
0	1543	138.766319437676	1
0	1545	138.865486104343	0
0	1547	139.224047490472	1
0	1549	139.306304200555	2
0	1551	139.321566264206	2
0	1555	139.420732930873	0
0	1557	139.46499503381	1
0	1559	139.564161700477	0
0	1561	139.684804568124	1
0	1563	139.783971234791	0
0	1565	139.83469701914	1
0	1567	139.933863685807	0
0	1569	140.069550658624	1
0	1571	140.168717325291	0
0	1573	140.358396351316	1
0	1575	140.457563017983	0
0	1577	140.473929947223	1
0	1579	140.57309661389	0
0	1581	140.591140104566	1
0	1583	140.690306771233	0
0	1585	140.715341794927	1
0	1587	140.814508461594	0
0	1589	141.516248543207	1
0	1591	141.534837598961	2
0	1593	141.553127300578	2
0	1597	141.652293967245	0
0	1599	141.786615339774	1
0	1601	141.885782006441	0
0	1603	142.080307072634	1
0	1605	142.179473739301	0
0	1607	142.243681470855	1
0	1609	142.342848137522	0
0	1611	142.372928404307	1
0	1613	142.472095070974	0
0	1615	143.300796415939	1
0	1617	143.399963082606	0
0	1619	143.620793761959	1
0	1621	143.719960428626	0
0	1623	145.025209638496	1
0	1625	145.124376305163	0
0	1627	145.451800741337	1
0	1629	145.508059353185	2
0	1632	145.607226019852	0
0	1634	145.994505578407	1
0	1636	146.093672245074	0
0	1638	146.839487542408	1
0	1640	146.938654209075	0
0	1642	147.057349736184	1
0	1644	147.103958149426	2
0	1647	147.158562721516	2
0	1650	147.257729388183	0
0	1652	148.198637801972	1
0	1654	148.297804468639	0
0	1656	148.69859511464	1
0	1658	148.764806209855	2
0	1661	148.863972876522	0
0	1663	148.900681408176	1
0	1665	148.999848074843	0
0	1667	149.542987176693	1
0	1669	149.64215384336	0
0	1671	150.048330389967	1
0	1673	150.062345400886	2
0	1676	150.161512067553	0
0	1678	150.520470376754	1
0	1680	150.619637043421	0
0	1682	150.730219419772	1
0	1684	150.803748714986	2
0	1687	150.902915381653	0
0	1689	151.418502823764	1
0	1691	151.517669490431	0
0	1693	151.763700179179	1
0	1695	151.818023386508	2
0	1698	151.917190053175	0
0	1700	152.744373216721	1
0	1702	152.843539883388	0
0	1704	153.088488650275	1
0	1706	153.187655316942	0
0	1708	153.826641982451	1
0	1710	153.925808649118	0
0	1712	154.148814991572	1
0	1714	154.247981658239	0
0	1716	155.477520724891	1
0	1718	155.576687391558	0
0	1720	155.669390988001	1
0	1722	155.741903297398	2
0	1725	155.841069964065	0
0	1727	156.014155284239	1
0	1729	156.113321950906	0
0	1731	156.335373075412	1
0	1733	156.434539742079	0
0	1735	156.536531762117	1
0	1737	156.635698428784	0
0	1739	156.828584701398	1
0	1741	156.927751368065	0
0	1743	157.044719809361	1
0	1745	157.143886476028	0
0	1747	157.411582035156	1
0	1749	157.510748701823	0
0	1751	157.871735420957	1
0	1753	157.970902087624	0
0	1755	158.78423919983	1
0	1757	158.797998137878	2
0	1760	158.897164804545	0
0	1762	159.174426978549	1
0	1764	159.273593645216	0
0	1766	159.473298464672	1
0	1768	159.490774941206	2
0	1771	159.589941607873	0
0	1773	159.922020705083	1
0	1775	160.02118737175	0
0	1777	160.541780963317	1
0	1779	160.56747609823	2
0	1782	160.666642764897	0
0	1784	160.744798611169	1
0	1786	160.843965277836	0
0	1788	160.922414370096	1
0	1790	161.021581036763	0
0	1792	161.501996260998	1
0	1794	161.601162927665	0
0	1796	161.660279655902	1
0	1798	161.759446322569	0
0	1800	162.271513964339	1
0	1802	162.370680631006	0
0	1804	162.606888982128	1
0	1806	162.706055648795	0
0	1808	162.982716809326	1
0	1810	163.081883475993	0
0	1812	164.153640973818	1
0	1814	164.251309251277	2
0	1817	164.350475917944	0
0	1819	164.473299222982	1
0	1821	164.572465889649	0
0	1823	164.965795961865	1
0	1825	165.064962628532	0
0	1827	165.149534677157	1
0	1829	165.248701343824	0
0	1831	168.149477485931	1
0	1833	168.248644152598	0
0	1835	168.414313008144	1
0	1837	168.513479674811	0
0	1839	168.663818677941	1
0	1841	168.674880893591	2
0	1844	168.774047560258	0
0	1846	168.804386218909	1
0	1848	168.903552885576	0
0	1850	169.030708101004	1
0	1852	169.129874767671	0
0	1854	169.141830857151	1
0	1856	169.240997523818	0
0	1858	169.402326979979	1
0	1860	169.501493646646	0
0	1862	169.663211838219	1
0	1864	169.762378504886	0
0	1866	169.765048509767	1
0	1868	169.765145091266	2
0	1871	169.864311757933	0
0	1873	170.005961847641	1
0	1875	170.105128514308	0
0	1877	170.736412200018	1
0	1879	170.835578866685	0
0	1881	171.050007537241	1
0	1883	171.149174203908	0
0	1885	171.404057644617	1
0	1887	171.427128611659	2
0	1890	171.526295278326	0
0	1892	171.753418871621	1
0	1894	171.852585538288	0
0	1896	172.159582350853	1
0	1898	172.25874901752	0
0	1900	172.564131675164	1
0	1902	172.663298341831	0
0	1904	172.815747412966	1
0	1906	172.881185697231	2
0	1909	172.973590011511	2
0	1912	173.072756678178	0
0	1914	173.851420157521	1
0	1916	173.950586824188	0
0	1918	174.510220890401	1
0	1920	174.609387557068	0
0	1922	175.378694408242	1
0	1924	175.477861074909	0
0	1926	175.653112656407	1
0	1928	175.752279323074	0
0	1930	175.801262506892	1
0	1932	175.900429173559	0
0	1934	177.069731306415	1
0	1936	177.168897973082	0
0	1938	177.480814618916	1
0	1940	177.579981285583	0
0	1942	177.701302564022	1
0	1944	177.800469230689	0
0	1946	177.887189880653	1
0	1948	177.98635654732	0
0	1950	178.363042291033	1
0	1952	178.4622089577	0
0	1954	178.478928263865	1
0	1956	178.578094930532	0
0	1958	178.752901886374	1
0	1960	178.847461880618	2
0	1963	178.946628547285	0
0	1965	179.102980560269	1
0	1967	179.202147226936	0
0	1969	180.788727926549	1
0	1971	180.887894593216	0
0	1973	180.938782541487	1
0	1975	181.037949208154	0
0	1977	181.182144330008	1
0	1979	181.281310996675	0
0	1981	181.401051641895	1
0	1983	181.449324587921	2
0	1986	181.548491254588	0
0	1988	181.664152742895	1
0	1990	181.763319409562	0
0	1992	181.894943267762	1
0	1994	181.994109934429	0
0	1996	182.018151125601	1
0	1998	182.117317792268	0
0	2000	183.07984700614	1
0	2002	183.179013672807	0
0	2004	184.134923023957	1
0	2006	184.234089690624	0
0	2008	185.735839956609	1
0	2010	185.831356323645	2
0	2013	185.83738602071	2
0	2016	185.936552687377	0
0	2018	186.012546257955	1
0	2020	186.111712924622	0
0	2022	186.44320538722	1
0	2024	186.454385012652	2
0	2026	186.497703149547	2
0	2030	186.596869816214	0
0	2032	186.684247592773	1
0	2034	186.78341425944	0
0	2036	187.288353953598	1
0	2038	187.387520620265	0
0	2040	187.477568367465	1
0	2042	187.576735034132	0
0	2044	188.026281828398	1
0	2046	188.125448495065	0
0	2048	188.368061957296	1
0	2050	188.467228623963	0
0	2052	188.742383010477	1
0	2054	188.841549677144	0
0	2056	189.029046508423	1
0	2058	189.12821317509	0
0	2060	189.504169571543	1
0	2062	189.560885937693	2
0	2065	189.66005260436	0
0	2067	189.753220519512	1
0	2069	189.852387186179	0
0	2071	189.946671243989	1
0	2073	190.045837910656	0
0	2075	190.248190785806	1
0	2077	190.347357452473	0
0	2079	190.81523789277	1
0	2081	190.823994969435	2
0	2084	190.923161636102	0
0	2086	191.188103284088	1
0	2088	191.263214530724	2
0	2091	191.362381197391	0
0	2093	191.58833490128	1
0	2095	191.687501567947	0
0	2097	191.827928359909	1
0	2099	191.927095026576	0
0	2101	192.470642457726	1
0	2103	192.569809124393	0
0	2105	192.718065022087	1
0	2107	192.814371819234	2
0	2110	192.913538485901	0
0	2112	193.696195979666	1
0	2114	193.795362646333	0
0	2116	193.995037037539	1
0	2118	194.094203704206	0
0	2120	194.302946421115	1
0	2122	194.402113087782	0
0	2124	194.658781935075	1
0	2126	194.757948601742	0
0	2128	195.401339548662	1
0	2130	195.500506215329	0
0	2132	195.606685070452	1
0	2134	195.705851737119	0
0	2136	195.89594612913	1
0	2138	195.920692432839	2
0	2140	195.929074956599	2
0	2144	196.028241623266	0
0	2146	196.323952261299	1
0	2148	196.3674066797	2
0	2150	196.412388250422	2
0	2154	196.511554917089	0
0	2156	196.883518939556	1
0	2158	196.900311703492	2
0	2161	196.999478370159	0
0	2163	197.178448860234	1
0	2165	197.277615526901	0
0	2167	197.292959659659	1
0	2169	197.392126326326	0
0	2171	197.447283249333	1
0	2173	197.546449916	0
0	2175	197.625722849595	1
0	2177	197.724889516262	0
0	2179	197.901054782716	1
0	2181	198.000221449383	0
0	2183	198.543587911732	1
0	2185	198.642754578399	0
0	2187	198.864947474444	1
0	2189	198.964114141111	0
0	2191	199.224264223573	1
0	2193	199.32343089024	0
0	2195	199.768922177683	1
0	2197	199.86808884435	0
0	2199	200.429572159305	1
0	2201	200.447857245142	2
0	2204	200.547023911809	0
0	2206	201.006510880177	1
0	2208	201.105677546844	0
0	2210	201.534139244876	1
0	2212	201.633305911543	0
0	2214	201.725689409443	1
0	2216	201.82485607611	0
0	2218	202.447416281716	1
0	2220	202.546582948383	0
0	2222	202.791271349477	1
0	2224	202.890438016144	0
0	2226	203.091195816766	1
0	2228	203.190362483433	0
0	2230	203.269566783864	1
0	2232	203.322404744125	2
0	2235	203.421571410792	0
0	2237	203.517755642491	1
0	2239	203.616922309158	0
0	2241	203.71665686247	1
0	2243	203.815823529137	0
0	2245	204.693771357092	1
0	2247	204.792938023759	0
0	2249	204.849042795105	1
0	2251	204.948209461772	0
0	2253	205.017949131364	1
0	2255	205.117115798031	0
0	2257	205.381213770962	1
0	2259	205.480380437629	0
0	2261	205.529738361128	1
0	2263	205.628905027795	0
0	2265	206.150588480174	1
0	2267	206.249755146841	0
0	2269	206.559497138587	1
0	2271	206.658663805254	0
0	2273	206.813724913062	1
0	2275	206.856273265555	2
0	2278	206.955439932222	0