version 3
run PureAlohaExperiment-3-20250302-16:21:59-14228
attr configname PureAlohaExperiment
attr datetime 20250302-16:21:59
attr datetimef 20250302-162159
attr experiment PureAlohaExperiment
attr inifile omnetpp.ini
attr iterationvars "$numHosts=10, $iaMean=4"
attr iterationvarsd numHosts=10/iaMean=4
attr iterationvarsf numHosts=10,iaMean=4-
attr measurement "$numHosts=10, $iaMean=4"
attr network Aloha
attr processid 14228
attr repetition 0
attr replication #0
attr resultdir results
attr runnumber 3
attr seedset 3
itervar iaMean 4
itervar numHosts 10
config description "Channel utilization in the function of packet generation frequency"
config repeat 1
config sim-time-limit 90min
config Aloha.numHosts 10
config Aloha.host[*].iaTime exponential(4s)
config network Aloha
config Aloha.numHosts 20
config Aloha.slotTime 0s
config Aloha.txRate 9.6kbps
config Aloha.host[*].pkLenBits 952b
config **.x "uniform(0m, 1000m)"
config **.y "uniform(0m, 1000m)"
config **.animationHoldTimeOnCollision 0s
config **.idleAnimationSpeed 1
config **.transmissionEdgeAnimationSpeed 1e-6
config **.midTransmissionAnimationSpeed 1e-1

vector 0 Aloha.server serverChannelState:vector ETV
attr enum IDLE=0,TRANSMISSION=1,COLLISION=2
attr recordingmode vector
attr source channelState
attr title "Channel state"
vector 1 Aloha.server channelUtilization:vector ETV
attr interpolationmode linear
attr recordingmode vector
attr source timeavg(receive)
attr title "channel utilization"
vector 2 Aloha.host[0] radioState:vector ETV
attr enum IDLE=0,TRANSMIT=1
attr recordingmode vector
attr source state
attr title "Radio state"
vector 3 Aloha.host[1] radioState:vector ETV
attr enum IDLE=0,TRANSMIT=1
attr recordingmode vector
attr source state
attr title "Radio state"
vector 4 Aloha.host[2] radioState:vector ETV
attr enum IDLE=0,TRANSMIT=1
attr recordingmode vector
attr source state
attr title "Radio state"
vector 5 Aloha.host[3] radioState:vector ETV
attr enum IDLE=0,TRANSMIT=1
attr recordingmode vector
attr source state
attr title "Radio state"
vector 6 Aloha.host[4] radioState:vector ETV
attr enum IDLE=0,TRANSMIT=1
attr recordingmode vector
attr source state
attr title "Radio state"
vector 7 Aloha.host[5] radioState:vector ETV
attr enum IDLE=0,TRANSMIT=1
attr recordingmode vector
attr source state
attr title "Radio state"
vector 8 Aloha.host[6] radioState:vector ETV
attr enum IDLE=0,TRANSMIT=1
attr recordingmode vector
attr source state
attr title "Radio state"
vector 9 Aloha.host[7] radioState:vector ETV
attr enum IDLE=0,TRANSMIT=1
attr recordingmode vector
attr source state
attr title "Radio state"
vector 10 Aloha.host[8] radioState:vector ETV
attr enum IDLE=0,TRANSMIT=1
attr recordingmode vector
attr source state
attr title "Radio state"
vector 11 Aloha.host[9] radioState:vector ETV
attr enum IDLE=0,TRANSMIT=1
attr recordingmode vector
attr source state
attr title "Radio state"
0	0	0	0
0	2	0.971229188507	1
0	4	1.070395855174	0
0	6	1.16749237692	1
0	8	1.266659043587	0
0	10	1.305622271365	1
0	12	1.404788938032	0
0	14	1.747236781992	1
0	16	1.846403448659	0
0	18	2.414486948021	1
0	20	2.441358081368	2
0	23	2.540524748035	0
0	25	2.714107382463	1
0	27	2.81327404913	0
0	29	3.574821129624	1
0	31	3.673987796291	0
0	33	3.714035188057	1
0	35	3.813201854724	0
0	37	4.189519841096	1
0	39	4.288686507763	0
0	41	4.511196536651	1
0	43	4.599595899137	2
0	46	4.67830728047	2
0	49	4.777473947137	0
0	51	4.958539775481	1
0	53	5.057706442148	0
0	55	5.146850032829	1
0	57	5.246016699496	0
0	59	5.75189886402	1
0	61	5.851065530687	0
0	63	5.92854246764	1
0	65	6.027709134307	0
0	67	6.343600177089	1
0	69	6.442766843756	0
0	71	6.89273432495	1
0	73	6.991900991617	0
0	75	7.073428841802	1
0	77	7.099990117535	2
0	80	7.199156784202	0
0	82	8.23231434384	1
0	84	8.276065714091	2
0	87	8.375232380758	0
0	89	8.662385890191	1
0	91	8.761552556858	0
0	93	9.174456160595	1
0	95	9.273622827262	0
0	97	9.335790729806	1
0	99	9.379130872483	2
0	102	9.47829753915	0
0	104	9.5228701543	1
0	106	9.622036820967	0
0	108	9.705356608442	1
0	110	9.781274361454	2
0	113	9.880441028121	0
0	115	10.496391338549	1
0	117	10.595558005216	0
0	119	11.237526955412	1
0	121	11.336693622079	0
0	123	12.112507747251	1
0	125	12.211674413918	0
0	127	12.910678769188	1
0	129	13.009845435855	0
0	131	13.054138963919	1
0	133	13.153305630586	0
0	135	13.978166420574	1
0	137	14.077333087241	0
0	139	14.504340885588	1
0	141	14.603507552255	0
0	143	15.059206433839	1
0	145	15.158373100506	0
0	147	16.113914273369	1
0	149	16.213080940036	0
0	151	16.391289015222	1
0	153	16.490455681889	0
0	155	16.502730004049	1
0	157	16.600080653075	2
0	160	16.699247319742	0
0	162	17.36983883431	1
0	164	17.469005500977	0
0	166	17.703692958199	1
0	168	17.802859624866	0
0	170	18.626277852125	1
0	172	18.725444518792	0
0	174	19.630290383151	1
0	176	19.729457049818	0
0	178	19.823012931787	1
0	180	19.922179598454	0
0	182	20.497836790483	1
0	184	20.520384673835	2
0	187	20.619551340502	0
0	189	20.63005072134	1
0	191	20.729217388007	0
0	193	20.733346296745	1
0	195	20.832512963412	0
0	197	20.840358053168	1
0	199	20.939524719835	0
0	201	20.942029911223	1
0	203	21.04119657789	0
0	205	21.53701632576	1
0	207	21.636182992427	0
0	209	22.114832013614	1
0	211	22.213998680281	0
0	213	22.295853147278	1
0	215	22.395019813945	0
0	217	22.706557837178	1
0	219	22.803844645243	2
0	222	22.887701566867	2
0	225	22.986868233534	0
0	227	23.304401927376	1
0	229	23.364035891286	2
0	232	23.463202557953	0
0	234	23.594072821038	1
0	236	23.693239487705	0
0	238	24.038401895697	1
0	240	24.137568562364	0
0	242	24.722567130363	1
0	244	24.82173379703	0
0	246	25.253367878727	1
0	248	25.352534545394	0
0	250	25.398759157167	1
0	252	25.471008919125	2
0	255	25.570175585792	0
0	257	26.455329262326	1
0	259	26.554495928993	0
0	261	26.655330504873	1
0	263	26.75449717154	0
0	265	26.867207545034	1
0	267	26.966374211701	0
0	269	26.993204019934	1
0	271	27.092370686601	0
0	273	27.144012000999	1
0	275	27.243178667666	0
0	277	27.372342519711	1
0	279	27.471509186378	0
0	281	27.506754245442	1
0	283	27.605920912109	0
0	285	27.674214966147	1
0	287	27.750535875228	2
0	290	27.849702541895	0
0	292	27.991844410324	1
0	294	27.995280775531	2
0	297	28.094447442198	0
0	299	28.138464248902	1
0	301	28.237630915569	0
0	303	30.036403854529	1
0	305	30.135570521196	0
0	307	30.35798432562	1
0	309	30.456091035878	2
0	312	30.555257702545	0
0	314	30.734393499888	1
0	316	30.833560166555	0
0	318	30.866603442119	1
0	320	30.965770108786	0
0	322	31.490589998962	1
0	324	31.589756665629	0
0	326	31.887245739008	1
0	328	31.935373610587	2
0	331	32.034540277254	0
0	333	32.568563487286	1
0	335	32.667730153953	0
0	337	32.684492778263	1
0	339	32.78365944493	0
0	341	33.410801656721	1
0	343	33.458721246634	2
0	346	33.557887913301	0
0	348	34.188583884697	1
0	350	34.287750551364	0
0	352	34.654724740732	1
0	354	34.753891407399	0
0	356	34.962360820275	1
0	358	35.061527486942	0
0	360	35.376866379447	1
0	362	35.476033046114	0
0	364	36.288615730199	1
0	366	36.32701304587	2
0	369	36.415036099843	2
0	372	36.51420276651	0
0	374	36.708710887518	1
0	376	36.807877554185	0
0	378	36.975573843702	1
0	380	37.074740510369	0
0	382	37.690140360187	1
0	384	37.789307026854	0
0	386	37.969993640592	1
0	388	38.003136102989	2
0	390	38.043320018651	2
0	394	38.142486685318	0
0	396	38.168682792457	1
0	398	38.267849459124	0
0	400	38.595005681764	1
0	402	38.694172348431	0
0	404	38.877987573448	1
0	406	38.977154240115	0
0	408	39.164071771053	1
0	410	39.214156161618	2
0	413	39.313322828285	0
0	415	39.349055419611	1
0	417	39.448222086278	0
0	419	39.463471332912	1
0	421	39.508815976891	2
0	424	39.607982643558	0
0	426	39.713466417529	1
0	428	39.812633084196	0
0	430	40.025649288819	1
0	432	40.124815955486	0
0	434	40.23385299228	1
0	436	40.333019658947	0
0	438	40.936110036677	1
0	440	41.035276703344	0
0	442	42.082786206015	1
0	444	42.181952872682	0
0	446	42.911122879303	1
0	448	42.942247564079	2
0	451	43.041414230746	0
0	453	43.318683452715	1
0	455	43.385527645247	2
0	458	43.484694311914	0
0	460	43.767380062071	1
0	462	43.786012236837	2
0	465	43.885178903504	0
0	467	43.937846962617	1
0	469	44.017164972788	2
0	472	44.116331639455	0
0	474	44.723217020189	1
0	476	44.772636508697	2
0	478	44.775174570938	2
0	480	44.811654167209	2
0	485	44.910820833876	0
0	487	44.961168756267	1
0	489	45.060335422934	0
0	491	45.165718625304	1
0	493	45.264885291971	0
0	495	45.293709016336	1
0	497	45.392875683003	0
0	499	45.464623814058	1
0	501	45.563790480725	0
0	503	45.813891935968	1
0	505	45.887048715499	2
0	508	45.986215382166	0
0	510	46.272760563525	1
0	512	46.371927230192	0
0	514	46.395898147794	1
0	516	46.495064814461	0
0	518	48.488158094086	1
0	520	48.587324760753	0
0	522	49.593421722278	1
0	524	49.692588388945	0
0	526	50.186676788244	1
0	528	50.285843454911	0
0	530	50.639900740977	1
0	532	50.739067407644	0
0	534	50.753891181239	1
0	536	50.853057847906	0
0	538	51.040885606217	1
0	540	51.073000125717	2
0	543	51.172166792384	0
0	545	52.081321551505	1
0	547	52.180488218172	0
0	549	52.365537039297	1
0	551	52.464703705964	0
0	553	52.513681529731	1
0	555	52.612848196398	0
0	557	52.807580112544	1
0	559	52.906746779211	0
0	561	53.383829582484	1
0	563	53.482996249151	0
0	565	53.818192794444	1
0	567	53.84018649155	2
0	570	53.939353158217	0
0	572	55.651864413685	1
0	574	55.751031080352	0
0	576	56.294596064918	1
0	578	56.393762731585	0
0	580	56.556905243701	1
0	582	56.656071910368	0
0	584	58.140878453122	1
0	586	58.240045119789	0
0	588	58.378743428131	1
0	590	58.477910094798	0
0	592	58.666171867561	1
0	594	58.765338534228	0
0	596	59.319027690033	1
0	598	59.4181943567	0
0	600	59.923051253819	1
0	602	60.022217920486	0
0	604	62.200871194311	1
0	606	62.300037860978	0
0	608	62.435610694873	1
0	610	62.53477736154	0
0	612	62.634668762989	1
0	614	62.733835429656	0
0	616	63.084413165702	1
0	618	63.183579832369	0
0	620	63.365391413319	1
0	622	63.464558079986	0
0	624	63.702128815225	1
0	626	63.777016921385	2
0	629	63.876183588052	0
0	631	64.066826475946	1
0	633	64.165993142613	0
0	635	64.404529093192	1
0	637	64.503695759859	0
0	639	65.006030288814	1
0	641	65.040511051733	2
0	644	65.1396777184	0
0	646	65.958327759184	1
0	648	66.057494425851	0
0	650	66.204362171743	1
0	652	66.30352883841	0
0	654	66.551611815232	1
0	656	66.650778481899	0
0	658	67.020691622131	1
0	660	67.029380107502	2
0	663	67.128546774169	0
0	665	67.210517224449	1
0	667	67.309683891116	0
0	669	68.462117608309	1
0	671	68.490799863722	2
0	674	68.589966530389	0
0	676	69.424222181468	1
0	678	69.523388848135	0
0	680	69.834699416069	1
0	682	69.933866082736	0
0	684	71.231183021802	1
0	686	71.330349688469	0
0	688	71.545253351095	1
0	690	71.644420017762	0
0	692	71.706673248854	1
0	694	71.805839915521	0
0	696	72.009738434064	1
0	698	72.108905100731	0
0	700	72.46871255513	1
0	702	72.567879221797	0
0	704	72.660881797861	1
0	706	72.760048464528	0
0	708	72.79806997154	1
0	710	72.865627120653	2
0	713	72.96479378732	0
0	715	73.122032612919	1
0	717	73.221199279586	0
0	719	74.177654891708	1
0	721	74.217106914639	2
0	724	74.316273581306	0
0	726	74.437301859312	1
0	728	74.490390616645	2
0	731	74.589557283312	0
0	733	75.573086646254	1
0	735	75.672253312921	0
0	737	75.876284692082	1
0	739	75.975451358749	0
0	741	76.175753050302	1
0	743	76.274919716969	0
0	745	76.746202376217	1
0	747	76.755684913464	2
0	750	76.854851580131	0
0	752	77.151267911932	1
0	754	77.250434578599	0
0	756	77.335184714994	1
0	758	77.434351381661	0
0	760	77.948492068699	1
0	762	77.951672601084	2
0	765	78.050839267751	0
0	767	78.209621858001	1
0	769	78.308788524668	0
0	771	78.927609326258	1
0	773	79.026775992925	0
0	775	79.069003009919	1
0	777	79.094715366429	2
0	780	79.193882033096	0
0	782	79.832352048077	1
0	784	79.931518714744	0
0	786	80.132941756227	1
0	788	80.232108422894	0
0	790	80.441495610595	1
0	792	80.540662277262	0
0	794	80.617653694167	1
0	796	80.716820360834	0
0	798	81.30677808444	1
0	800	81.405944751107	0
0	802	81.421456566985	1
0	804	81.444826126559	2
0	806	81.480379955467	2
0	810	81.579546622134	0
0	812	82.01222193572	1
0	814	82.111388602387	0
0	816	82.136226686271	1
0	818	82.235393352938	0
0	820	82.680650380123	1
0	822	82.77981704679	0
0	824	82.994686913698	1
0	826	83.088701312386	2
0	829	83.187867979053	0
0	831	83.7266313307	1
0	833	83.825797997367	0
0	835	84.064940756215	1
0	837	84.164107422882	0
0	839	84.719242939583	1
0	841	84.81840960625	0
0	843	85.756133520975	1
0	845	85.855300187642	0
0	847	86.167520036394	1
0	849	86.266686703061	0
0	851	86.576953508314	1
0	853	86.653782570835	2
0	856	86.752949237502	0
0	858	86.966972913561	1
0	860	87.066139580228	0
0	862	87.303999581078	1
0	864	87.403166247745	0
0	866	87.412644652063	1
0	868	87.51181131873	0
0	870	87.857839944929	1
0	872	87.957006611596	0
0	874	87.958644177162	1
0	876	88.057810843829	0
0	878	88.142705402323	1
0	880	88.24187206899	0
0	882	89.227510044348	1
0	884	89.326676711015	0
0	886	89.435294046343	1
0	888	89.448608199874	2
0	890	89.460592450014	2
0	894	89.559759116681	0
0	896	90.700377177012	1
0	898	90.799543843679	0
0	900	91.545023799922	1
0	902	91.644190466589	0
0	904	92.439413306416	1
0	906	92.538579973083	0
0	908	93.744866043485	1
0	910	93.844032710152	0
0	912	94.530365218725	1
0	914	94.629531885392	0
0	916	95.822985840471	1
0	918	95.922152507138	0
0	920	96.49108463933	1
0	922	96.590251305997	0
0	924	96.699444875699	1
0	926	96.798611542366	0
0	928	96.815159233699	1
0	930	96.914325900366	0
0	932	98.46669503138	1
0	934	98.565861698047	0
0	936	98.580562483109	1
0	938	98.679729149776	0
0	940	98.947166289149	1
0	942	99.046332955816	0
0	944	99.33986179002	1
0	946	99.439028456687	0
0	948	100.227959384104	1
0	950	100.327126050771	0
0	952	100.904139846432	1
0	954	101.003306513099	0
0	956	101.714837439354	1
0	958	101.814004106021	0
0	960	102.378185957514	1
0	962	102.477352624181	0
0	964	103.81912371925	1
0	966	103.918290385917	0
0	968	105.390314543815	1
0	970	105.489481210482	0
0	972	105.627217076679	1
0	974	105.726383743346	0
0	976	105.846907798321	1
0	978	105.946074464988	0
0	980	106.06674663765	1
0	982	106.165913304317	0
0	984	106.177542181644	1
0	986	106.276708848311	0
0	988	107.422951274858	1
0	990	107.522117941525	0
0	992	107.63676285455	1
0	994	107.735929521217	0
0	996	107.88233429834	1
0	998	107.981500965007	0
0	1000	108.607853602433	1
0	1002	108.7070202691	0
0	1004	110.486594621721	1
0	1006	110.585761288388	0
0	1008	110.619952568716	1
0	1010	110.695369007308	2
0	1013	110.794535673975	0
0	1015	110.815016278818	1
0	1017	110.914182945485	0
0	1019	110.984518172746	1
0	1021	111.083684839413	0
0	1023	111.446479105489	1
0	1025	111.514996792534	2
0	1028	111.614163459201	0
0	1030	112.87735932824	1
0	1032	112.931292240244	2
0	1035	113.030458906911	0
0	1037	113.052101775828	1
0	1039	113.151268442495	0
0	1041	113.642683534289	1
0	1043	113.741850200956	0
0	1045	114.176463053922	1
0	1047	114.275629720589	0
0	1049	114.514491231052	1
0	1051	114.613657897719	0
0	1053	114.943345248597	1
0	1055	115.02875602339	2
0	1058	115.127922690057	0
0	1060	115.152558223311	1
0	1062	115.251724889978	0
0	1064	115.808577883291	1
0	1066	115.90771003024	2
0	1069	116.006876696907	0
0	1071	117.359654843138	1
0	1073	117.458821509805	0
0	1075	118.077442405169	1
0	1077	118.176609071836	0
0	1079	119.993989968772	1
0	1081	120.010193197417	2
0	1084	120.109359864084	0
0	1086	120.451544008973	1
0	1088	120.55071067564	0
0	1090	121.026709485569	1
0	1092	121.106164341831	2
0	1095	121.205331008498	0
0	1097	121.246444378656	1
0	1099	121.345611045323	0
0	1101	121.365146543271	1
0	1103	121.464313209938	0
0	1105	121.488226614532	1
0	1107	121.540453542043	2
0	1110	121.63962020871	0
0	1112	121.668816303217	1
0	1114	121.767982969884	0
0	1116	122.087468014717	1
0	1118	122.186634681384	0
0	1120	122.226626318135	1
0	1122	122.325792984802	0
0	1124	122.905314473129	1
0	1126	123.004481139796	0
0	1128	123.527727856521	1
0	1130	123.53582811124	2
0	1133	123.634994777907	0
0	1135	124.724520603894	1
0	1137	124.823687270561	0
0	1139	124.960753109823	1
0	1141	124.980269152433	2
0	1144	125.0794358191	0
0	1146	126.568038936996	1
0	1148	126.667205603663	0
0	1150	126.770643054236	1
0	1152	126.869809720903	0
0	1154	127.256433058139	1
0	1156	127.355599724806	0
0	1158	128.006007980359	1
0	1160	128.054361723874	2
0	1163	128.153528390541	0
0	1165	128.383464927902	1
0	1167	128.482631594569	0
0	1169	129.078301877516	1
0	1171	129.177468544183	0
0	1173	129.844806985802	1
0	1175	129.943973652469	0
0	1177	129.957949905882	1
0	1179	130.057116572549	0
0	1181	130.255764559636	1
0	1183	130.354931226303	0
0	1185	131.866251191449	1
0	1187	131.965417858116	0
0	1189	131.999243433606	1
0	1191	132.098410100273	0
0	1193	133.307949637506	1
0	1195	133.407116304173	0
0	1197	133.408509404257	1
0	1199	133.507676070924	0
0	1201	134.46017234009	1
0	1203	134.559339006757	0
0	1205	135.023181646162	1
0	1207	135.122348312829	0
0	1209	135.142638580918	1
0	1211	135.241805247585	0
0	1213	135.612112496846	1
0	1215	135.616366901111	2
0	1217	135.655563953748	2
0	1221	135.754730620415	0
0	1223	135.761875265993	1
0	1225	135.86104193266	0
0	1227	136.1130665502	1
0	1229	136.212233216867	0
0	1231	136.904321706548	1
0	1233	137.003488373215	0
0	1235	137.487477950979	1
0	1237	137.586644617646	0
0	1239	137.907766509798	1
0	1241	138.006933176465	0
0	1243	138.223653333962	1
0	1245	138.322820000629	0
0	1247	138.921628788119	1
0	1249	139.020795454786	0
0	1251	139.272824678863	1
0	1253	139.362723423692	2
0	1256	139.372625666332	2
0	1259	139.467468948655	2
0	1262	139.566635615322	0
0	1264	140.103366969587	1
0	1266	140.202533636254	0
0	1268	141.77404683997	1
0	1270	141.815626132145	2
0	1273	141.883390156302	2
0	1276	141.982556822969	0
0	1278	142.175944948028	1
0	1280	142.275111614695	0
0	1282	143.008595292321	1
0	1284	143.107761958988	0
0	1286	143.552692042207	1
0	1288	143.651858708874	0
0	1290	144.59295731012	1
0	1292	144.692123976787	0
0	1294	145.033440561392	1
0	1296	145.132607228059	0
0	1298	145.218912193699	1
0	1300	145.291587197639	2
0	1303	145.318866487196	2
0	1306	145.407453194074	2
0	1309	145.506619860741	0
0	1311	145.619751730706	1
0	1313	145.718918397373	0
0	1315	146.4240834462	1
0	1317	146.523250112867	0
0	1319	147.0765805916	1
0	1321	147.097832406176	2
0	1324	147.196999072843	0
0	1326	147.269554246819	1
0	1328	147.368720913486	0
0	1330	147.483778897877	1
0	1332	147.582945564544	0
0	1334	147.976819522885	1
0	1336	148.075986189552	0
0	1338	148.262600624728	1
0	1340	148.361767291395	0
0	1342	149.755716327667	1
0	1344	149.854882994334	0
0	1346	150.106168195313	1
0	1348	150.20533486198	0
0	1350	150.66815960394	1
0	1352	150.767326270607	0
0	1354	150.937249585788	1
0	1356	150.996236508811	2
0	1359	151.095403175478	0
0	1361	152.312965912915	1
0	1363	152.412132579582	0
0	1365	152.605830618258	1
0	1367	152.704997284925	0
0	1369	152.719820022409	1
0	1371	152.759926769065	2
0	1373	152.815287450043	2
0	1377	152.91445411671	0
0	1379	152.99999273512	1
0	1381	153.099159401787	0
0	1383	153.171667421789	1
0	1385	153.270834088456	0
0	1387	153.282711970503	1
0	1389	153.38187863717	0
0	1391	153.781634687002	1
0	1393	153.880801353669	0
0	1395	154.891087148107	1
0	1397	154.990253814774	0
0	1399	155.426358523463	1
0	1401	155.52552519013	0
0	1403	155.80957592602	1
0	1405	155.82404941817	2
0	1408	155.923216084837	0
0	1410	156.241537892787	1
0	1412	156.241793405209	2
0	1415	156.340960071876	0
0	1417	156.452120852197	1
0	1419	156.551287518864	0
0	1421	157.243308499443	1
0	1423	157.298275668827	2
0	1426	157.397442335494	0
0	1428	157.656771394912	1
0	1430	157.755938061579	0
0	1432	157.93532299273	1
0	1434	158.034489659397	0
0	1436	158.100808340534	1
0	1438	158.199975007201	0
0	1440	158.568185815144	1
0	1442	158.667352481811	0
0	1444	158.732034544959	1
0	1446	158.831201211626	0
0	1448	159.199712017749	1
0	1450	159.298878684416	0
0	1452	159.436590392838	1
0	1454	159.535757059505	0
0	1456	160.493312449382	1
0	1458	160.592479116049	0
0	1460	160.940707410928	1
0	1462	161.039874077595	0
0	1464	161.586091804465	1
0	1466	161.685258471132	0
0	1468	161.895828234728	1
0	1470	161.994994901395	0
0	1472	162.000769560719	1
0	1474	162.099936227386	0
0	1476	162.100385453081	1
0	1478	162.199552119748	0
0	1480	163.037426341676	1
0	1482	163.074163162425	2
0	1484	163.1346830824	2
0	1488	163.233849749067	0
0	1490	163.619975718989	1
0	1492	163.719142385656	0
0	1494	163.857644150813	1
0	1496	163.861027504369	2
0	1499	163.960194171036	0
0	1501	164.522766201624	1
0	1503	164.621932868291	0
0	1505	164.915610479173	1
0	1507	165.008283240698	2
0	1510	165.107449907365	0
0	1512	165.16749415557	1
0	1514	165.266660822237	0
0	1516	165.639846709044	1
0	1518	165.679417240266	2
0	1521	165.778583906933	0
0	1523	165.864683779803	1
0	1525	165.96385044647	0
0	1527	166.056611163258	1
0	1529	166.155777829925	0
0	1531	166.27758357362	1
0	1533	166.376750240287	0
0	1535	166.428100404504	1
0	1537	166.527267071171	0
0	1539	166.530250264239	1
0	1541	166.629416930906	0
0	1543	166.892036731089	1
0	1545	166.991203397756	0
0	1547	167.020225107515	1
0	1549	167.114324383065	2
0	1552	167.213491049732	0
0	1554	167.800438207848	1
0	1556	167.899604874515	0
0	1558	167.913751759367	1
0	1560	168.012918426034	0
0	1562	168.203240973572	1
0	1564	168.302407640239	0
0	1566	168.617663712288	1
0	1568	168.716830378955	0
0	1570	168.722353313555	1
0	1572	168.767695580367	2
0	1575	168.866862247034	0
0	1577	169.195705303858	1
0	1579	169.294871970525	0
0	1581	169.44965701758	1
0	1583	169.548823684247	0
0	1585	169.689719883489	1
0	1587	169.788886550156	0
0	1589	170.104281815429	1
0	1591	170.203448482096	0
0	1593	170.37239304841	1
0	1595	170.471559715077	0
0	1597	171.985935756137	1
0	1599	172.085102422804	0
0	1601	173.001372304241	1
0	1603	173.100538970908	0
0	1605	173.268344951536	1
0	1607	173.367511618203	0
0	1609	173.557120193404	1
0	1611	173.656286860071	0
0	1613	174.068574726797	1
0	1615	174.167741393464	0
0	1617	174.453703607025	1
0	1619	174.552870273692	0
0	1621	174.950141362018	1
0	1623	175.049308028685	0
0	1625	175.209837345704	1
0	1627	175.309004012371	0
0	1629	175.711257224422	1
0	1631	175.810423891089	0
0	1633	176.06015283155	1
0	1635	176.159319498217	0
0	1637	176.482885561082	1
0	1639	176.582052227749	0
0	1641	176.910043064906	1
0	1643	176.920555609722	2
0	1646	177.019722276389	0
0	1648	177.128560439097	1
0	1650	177.158541543902	2
0	1653	177.257708210569	0
0	1655	177.83842528783	1
0	1657	177.937591954497	0
0	1659	178.053317893887	1
0	1661	178.152484560554	0
0	1663	178.502739240336	1
0	1665	178.601905907003	0
0	1667	179.380354755123	1
0	1669	179.445730928786	2
0	1672	179.544897595453	0
0	1674	180.000517049724	1
0	1676	180.099683716391	0
0	1678	181.251532872321	1
0	1680	181.350699538988	0
0	1682	181.352615259744	1
0	1684	181.451781926411	0
0	1686	181.59222387442	1
0	1688	181.691390541087	0
0	1690	182.1573873607	1
0	1692	182.256554027367	0
0	1694	182.666934543865	1
0	1696	182.741165647685	2
0	1699	182.840332314352	0
0	1701	182.884526028405	1
0	1703	182.983692695072	0
0	1705	183.315595866748	1
0	1707	183.414762533415	0
0	1709	183.552783669165	1
0	1711	183.651950335832	0
0	1713	183.656757403246	1
0	1715	183.753325292276	2
0	1718	183.803293935293	2
0	1721	183.90246060196	0
0	1723	184.002604220996	1
0	1725	184.074219434459	2
0	1728	184.125050118228	2
0	1731	184.224216784895	0
0	1733	184.723952474019	1
0	1735	184.823119140686	0
0	1737	184.840221412139	1
0	1739	184.939388078806	0
0	1741	185.363398578125	1
0	1743	185.462565244792	0
0	1745	185.681438664429	1
0	1747	185.780605331096	0
0	1749	186.333490086089	1
0	1751	186.377199616914	2
0	1754	186.476366283581	0
0	1756	186.594858573972	1
0	1758	186.694025240639	0
0	1760	186.763447569689	1
0	1762	186.862614236356	0
0	1764	186.948088486026	1
0	1766	187.047255152693	0
0	1768	187.154487686696	1
0	1770	187.253654353363	0
0	1772	187.538738764392	1
0	1774	187.637905431059	0
0	1776	187.683249633832	1
0	1778	187.73182473001	2
0	1781	187.830991396677	0
0	1783	188.443746387461	1
0	1785	188.542913054128	0
0	1787	188.568610470643	1
0	1789	188.66777713731	0
0	1791	188.847358642421	1
0	1793	188.946525309088	0
0	1795	189.073189431801	1
0	1797	189.172356098468	0
0	1799	191.093434082084	1
0	1801	191.192600748751	0
0	1803	191.297711270312	1
0	1805	191.330123253869	2
0	1808	191.429289920536	0
0	1810	191.997328445727	1
0	1812	192.096495112394	0
0	1814	192.470713270488	1
0	1816	192.569879937155	0
0	1818	192.934092401669	1
0	1820	193.033259068336	0
0	1822	194.494937852845	1
0	1824	194.556658916934	2
0	1827	194.603634425522	2
0	1830	194.702801092189	0
0	1832	195.27177192953	1
0	1834	195.370938596197	0
0	1836	195.402701588999	1
0	1838	195.413298480339	2
0	1841	195.512465147006	0
0	1843	195.684385433412	1
0	1845	195.783552100079	0
0	1847	196.221066032928	1
0	1849	196.320232699595	0
0	1851	197.587239095937	1
0	1853	197.686405762604	0
0	1855	198.635675304323	1
0	1857	198.73484197099	0
0	1859	200.814760313599	1
0	1861	200.913926980266	0
0	1863	201.360968558622	1
0	1865	201.460135225289	0
0	1867	202.023600530082	1
0	1869	202.122767196749	0
0	1871	202.141471915842	1
0	1873	202.240638582509	0
0	1875	202.42203920652	1
0	1877	202.521205873187	0
0	1879	203.242846912967	1
0	1881	203.342013579634	0
0	1883	203.552528049205	1
0	1885	203.651694715872	0
0	1887	203.821877500791	1
0	1889	203.921044167458	0
0	1891	204.051344479498	1
0	1893	204.150511146165	0
0	1895	204.38846477923	1
0	1897	204.487631445897	0
0	1899	204.969275776383	1
0	1901	205.06844244305	0
0	1903	205.367060644145	1
0	1905	205.466227310812	0
0	1907	205.809488713225	1
0	1909	205.814588429863	2
0	1912	205.91375509653	0
0	1914	205.917668834221	1
0	1916	206.016835500888	0
0	1918	206.126451327217	1
0	1920	206.225617993884	0
0	1922	206.694367825355	1
0	1924	206.793534492022	0
0	1926	207.011253726023	1
0	1928	207.11042039269	0
0	1930	207.149155407425	1
0	1932	207.248322074092	0
0	1934	207.680641918036	1
0	1936	207.779808584703	0
0	1938	208.105990976486	1
0	1940	208.205157643153	0
0	1942	208.304613695518	1
0	1944	208.403780362185	0
0	1946	208.940845084588	1
0	1948	209.040011751255	0
0	1950	209.133180320068	1
0	1952	209.232346986735	0
0	1954	209.251015808033	1
0	1956	209.3501824747	0
0	1958	209.605976446161	1
0	1960	209.705143112828	0
0	1962	209.939358614206	1
0	1964	209.977613687571	2
0	1967	210.076780354238	0
0	1969	210.178038054434	1
0	1971	210.277204721101	0
0	1973	210.927987727443	1
0	1975	211.02715439411	0
0	1977	213.167756490565	1
0	1979	213.266923157232	0
0	1981	213.396500156434	1
0	1983	213.495666823101	0
0	1985	214.025457679439	1
0	1987	214.12073517117	2
0	1990	214.219901837837	0
0	1992	214.526012609678	1
0	1994	214.625179276345	0
0	1996	214.996175691727	1
0	1998	215.095342358394	0
0	2000	215.096254432847	1
0	2002	215.136861452777	2
0	2005	215.236028119444	0
0	2007	216.723908435408	1
0	2009	216.813298031343	2
0	2012	216.91246469801	0
0	2014	217.398157635654	1
0	2016	217.454565193644	2
0	2019	217.553731860311	0
0	2021	217.777928486251	1
0	2023	217.872458051121	2
0	2026	217.971624717788	0
0	2028	218.285158648871	1
0	2030	218.300860165565	2
0	2033	218.400026832232	0
0	2035	218.797966976251	1
0	2037	218.812664959113	2
0	2040	218.91183162578	0
0	2042	219.439062256092	1
0	2044	219.538228922759	0
0	2046	219.836667993056	1
0	2048	219.935834659723	0
0	2050	220.349051998538	1
0	2052	220.448218665205	0
0	2054	221.087570756329	1
0	2056	221.186737422996	0
0	2058	222.391606140661	1
0	2060	222.490772807328	0
0	2062	222.614889605379	1
0	2064	222.714056272046	0
0	2066	223.275633341818	1
0	2068	223.374800008485	0
0	2070	224.620438317161	1
0	2072	224.719604983828	0
0	2074	224.974558002312	1
0	2076	225.073724668979	0
0	2078	225.307208906093	1
0	2080	225.40637557276	0
0	2082	226.654441117812	1
0	2084	226.753607784479	0
0	2086	226.792608704857	1
0	2088	226.891775371524	0
0	2090	227.380139624474	1
0	2092	227.479306291141	0
0	2094	227.541174489489	1
0	2096	227.640341156156	0
0	2098	227.955283493533	1
0	2100	227.966352424983	2
0	2103	228.06551909165	0
0	2105	228.762788631921	1
0	2107	228.826409875868	2
0	2110	228.925576542535	0
0	2112	229.858611308685	1
0	2114	229.957777975352	0
0	2116	230.653639896746	1
0	2118	230.752806563413	0
0	2120	231.280692516892	1
0	2122	231.293508048978	2
0	2125	231.392674715645	0
0	2127	231.645051960078	1
0	2129	231.695523827227	2
0	2132	231.794690493894	0
0	2134	231.97844797508	1
0	2136	232.077614641747	0
0	2138	233.136974230034	1
0	2140	233.236140896701	0
0	2142	233.384226990796	1
0	2144	233.483393657463	0
0	2146	233.661317100674	1
0	2148	233.760483767341	0
0	2150	235.437756706979	1
0	2152	235.536923373646	0
0	2154	235.551162114504	1
0	2156	235.650328781171	0
0	2158	235.753362218352	1
0	2160	235.852528885019	0
0	2162	235.938966582424	1
0	2164	236.038133249091	0
0	2166	236.809672412821	1
0	2168	236.908839079488	0
0	2170	237.237275730317	1
0	2172	237.336442396984	0
0	2174	237.687750370085	1
0	2176	237.786917036752	0
0	2178	237.835149673511	1
0	2180	237.934316340178	0
0	2182	237.956531431085	1
0	2184	238.055698097752	0
0	2186	238.253865590939	1
0	2188	238.342951111542	2
0	2191	238.442117778209	0
0	2193	238.766611856728	1
0	2195	238.865778523395	0
0	2197	239.817040244253	1
0	2199	239.91620691092	0
0	2201	240.543167281957	1
0	2203	240.642333948624	0
0	2205	241.794327265664	1
0	2207	241.82857600025	2
0	2210	241.893699138134	2
0	2212	241.90922308012	2
0	2214	241.924450853383	2
0	2219	242.02361752005	0
0	2221	243.072412870653	1
0	2223	243.17157953732	0
0	2225	243.44476904649	1
0	2227	243.543935713157	0
0	2229	243.776192513033	1
0	2231	243.8753591797	0
0	2233	244.141538798444	1
0	2235	244.240705465111	0
0	2237	244.332866579506	1
0	2239	244.432033246173	0
0	2241	244.867107311278	1
0	2243	244.966273977945	0
0	2245	245.187803359851	1
0	2247	245.286970026518	0
0	2249	245.409731807753	1
0	2251	245.50889847442	0
0	2253	245.57758433524	1
0	2255	245.661993559267	2
0	2258	245.761160225934	0
0	2260	246.938020609755	1
0	2262	247.037187276422	0
0	2264	247.356450699039	1
0	2266	247.455617365706	0
0	2268	247.468126053019	1
0	2270	247.567292719686	0
0	2272	247.635945298591	1
0	2274	247.677697745017	2
0	2277	247.776864411684	0
0	2279	247.785375703613	1
0	2281	247.88454237028	0
0	2283	247.938760542823	1
0	2285	248.03792720949	0
0	2287	248.160410682629	1
0	2289	248.259577349296	0
0	2291	248.979330438086	1