version 3
run PureAlohaExperiment-6-20250302-16:21:59-14228
attr configname PureAlohaExperiment
attr datetime 20250302-16:21:59
attr datetimef 20250302-162159
attr experiment PureAlohaExperiment
attr inifile omnetpp.ini
attr iterationvars "$numHosts=10, $iaMean=9"
attr iterationvarsd numHosts=10/iaMean=9
attr iterationvarsf numHosts=10,iaMean=9-
attr measurement "$numHosts=10, $iaMean=9"
attr network Aloha
attr processid 14228
attr repetition 0
attr replication #0
attr resultdir results
attr runnumber 6
attr seedset 6
itervar iaMean 9
itervar numHosts 10
config description "Channel utilization in the function of packet generation frequency"
config repeat 1
config sim-time-limit 90min
config Aloha.numHosts 10
config Aloha.host[*].iaTime exponential(9s)
config network Aloha
config Aloha.numHosts 20
config Aloha.slotTime 0s
config Aloha.txRate 9.6kbps
config Aloha.host[*].pkLenBits 952b
config **.x "uniform(0m, 1000m)"
config **.y "uniform(0m, 1000m)"
config **.animationHoldTimeOnCollision 0s
config **.idleAnimationSpeed 1
config **.transmissionEdgeAnimationSpeed 1e-6
config **.midTransmissionAnimationSpeed 1e-1

vector 0 Aloha.server serverChannelState:vector ETV
attr enum IDLE=0,TRANSMISSION=1,COLLISION=2
attr recordingmode vector
attr source channelState
attr title "Channel state"
vector 1 Aloha.server channelUtilization:vector ETV
attr interpolationmode linear
attr recordingmode vector
attr source timeavg(receive)
attr title "channel utilization"
vector 2 Aloha.host[0] radioState:vector ETV
attr enum IDLE=0,TRANSMIT=1
attr recordingmode vector
attr source state
attr title "Radio state"
vector 3 Aloha.host[1] radioState:vector ETV
attr enum IDLE=0,TRANSMIT=1
attr recordingmode vector
attr source state
attr title "Radio state"
vector 4 Aloha.host[2] radioState:vector ETV
attr enum IDLE=0,TRANSMIT=1
attr recordingmode vector
attr source state
attr title "Radio state"
vector 5 Aloha.host[3] radioState:vector ETV
attr enum IDLE=0,TRANSMIT=1
attr recordingmode vector
attr source state
attr title "Radio state"
vector 6 Aloha.host[4] radioState:vector ETV
attr enum IDLE=0,TRANSMIT=1
attr recordingmode vector
attr source state
attr title "Radio state"
vector 7 Aloha.host[5] radioState:vector ETV
attr enum IDLE=0,TRANSMIT=1
attr recordingmode vector
attr source state
attr title "Radio state"
vector 8 Aloha.host[6] radioState:vector ETV
attr enum IDLE=0,TRANSMIT=1
attr recordingmode vector
attr source state
attr title "Radio state"
vector 9 Aloha.host[7] radioState:vector ETV
attr enum IDLE=0,TRANSMIT=1
attr recordingmode vector
attr source state
attr title "Radio state"
vector 10 Aloha.host[8] radioState:vector ETV
attr enum IDLE=0,TRANSMIT=1
attr recordingmode vector
attr source state
attr title "Radio state"
vector 11 Aloha.host[9] radioState:vector ETV
attr enum IDLE=0,TRANSMIT=1
attr recordingmode vector
attr source state
attr title "Radio state"
0	0	0	0
0	2	1.5223232525	1
0	4	1.621489919167	0
0	6	2.467729437022	1
0	8	2.566896103689	0
0	10	4.448309535602	1
0	12	4.547476202269	0
0	14	6.568983851715	1
0	16	6.668150518382	0
0	18	7.783082824762	1
0	20	7.882249491429	0
0	22	8.332335227834	1
0	24	8.431501894501	0
0	26	9.32974632318	1
0	28	9.3451316354	2
0	31	9.444298302067	0
0	33	11.596917910099	1
0	35	11.696084576766	0
0	37	11.982240434515	1
0	39	12.081407101182	0
0	41	12.200214404811	1
0	43	12.299381071478	0
0	45	14.959767328143	1
0	47	15.05893399481	0
0	49	16.498812323868	1
0	51	16.597978990535	0
0	53	16.881079242727	1
0	55	16.980245909394	0
0	57	17.047588407822	1
0	59	17.146755074489	0
0	61	20.956074500187	1
0	63	21.055241166854	0
0	65	22.101145029446	1
0	67	22.16456515573	2
0	70	22.263731822397	0
0	72	22.9942188567	1
0	74	23.093385523367	0
0	76	23.712375482079	1
0	78	23.811542148746	0
0	80	25.052061086641	1
0	82	25.151227753308	0
0	84	26.351201996359	1
0	86	26.450368663026	0
0	88	26.688960247668	1
0	90	26.788126914335	0
0	92	27.248288390437	1
0	94	27.347455057104	0
0	96	27.522536399368	1
0	98	27.621703066035	0
0	100	29.146884060871	1
0	102	29.246050727538	0
0	104	29.621574962472	1
0	106	29.680433190949	2
0	109	29.779599857616	0
0	111	30.100493121572	1
0	113	30.199659788239	0
0	115	31.181129303913	1
0	117	31.28029597058	0
0	119	31.457892222807	1
0	121	31.532727342217	2
0	124	31.631894008884	0
0	126	31.921783508828	1
0	128	32.020950175495	0
0	130	32.268111252804	1
0	132	32.367277919471	0
0	134	33.31427552641	1
0	136	33.413442193077	0
0	138	34.677710917409	1
0	140	34.776877584076	0
0	142	36.829995352435	1
0	144	36.929162019102	0
0	146	38.732720517366	1
0	148	38.831887184033	0
0	150	41.569211928396	1
0	152	41.65067465996	2
0	155	41.749841326627	0
0	157	43.427188501843	1
0	159	43.52635516851	0
0	161	45.153439336072	1
0	163	45.252606002739	0
0	165	45.496820451953	1
0	167	45.59598711862	0
0	169	46.311247323685	1
0	171	46.410413990352	0
0	173	46.895725059348	1
0	175	46.994891726015	0
0	177	49.498126648706	1
0	179	49.597293315373	0
0	181	49.627745583486	1
0	183	49.726912250153	0
0	185	50.29171505077	1
0	187	50.390881717437	0
0	189	52.884082294694	1
0	191	52.983248961361	0
0	193	53.039723107645	1
0	195	53.138889774312	0
0	197	54.361507077867	1
0	199	54.460673744534	0
0	201	55.243633794903	1
0	203	55.34280046157	0
0	205	56.137492374205	1
0	207	56.236659040872	0
0	209	57.561321521815	1
0	211	57.660488188482	0
0	213	60.926176022635	1
0	215	61.025342689302	0
0	217	61.05106311073	1
0	219	61.150229777397	0
0	221	61.924194304785	1
0	223	62.023360971452	0
0	225	62.702557383567	1
0	227	62.801724050234	0
0	229	64.47834261017	1
0	231	64.577509276837	0
0	233	65.239197171202	1
0	235	65.335152519907	2
0	238	65.434319186574	0
0	240	66.049164838793	1
0	242	66.14833150546	0
0	244	67.412067628034	1
0	246	67.511234294701	0
0	248	68.285752045836	1
0	250	68.384918712503	0
0	252	68.458012488763	1
0	254	68.55717915543	0
0	256	68.663817473367	1
0	258	68.762984140034	0
0	260	68.790399665094	1
0	262	68.802734556682	2
0	265	68.901901223349	0
0	267	69.315831845446	1
0	269	69.414998512113	0
0	271	73.130236581045	1
0	273	73.229403247712	0
0	275	76.563669902327	1
0	277	76.662836568994	0
0	279	77.195564036475	1
0	281	77.294730703142	0
0	283	77.917682229562	1
0	285	78.016848896229	0
0	287	78.630393167688	1
0	289	78.729559834355	0
0	291	79.310673667207	1
0	293	79.409840333874	0
0	295	79.667745199155	1
0	297	79.766911865822	0
0	299	79.908252852103	1
0	301	80.00741951877	0
0	303	80.20978096737	1
0	305	80.308947634037	0
0	307	82.151188851481	1
0	309	82.250355518148	0
0	311	82.438994547316	1
0	313	82.538161213983	0
0	315	83.67650902924	1
0	317	83.775675695907	0
0	319	84.139757336941	1
0	321	84.238924003608	0
0	323	85.118027631842	1
0	325	85.14501271333	2
0	328	85.244179379997	0
0	330	85.662249496406	1
0	332	85.761416163073	0
0	334	86.361408085965	1
0	336	86.38830212904	2
0	339	86.487468795707	0
0	341	88.772427212137	1
0	343	88.836335512097	2
0	346	88.871757139319	2
0	349	88.970923805986	0
0	351	92.634558922252	1
0	353	92.733725588919	0
0	355	93.764568731368	1
0	357	93.863735398035	0
0	359	94.193590678135	1
0	361	94.292757344802	0
0	363	94.46044667654	1
0	365	94.556033114447	2
0	368	94.655199781114	0
0	370	95.078638180373	1
0	372	95.17780484704	0
0	374	96.101132277331	1
0	376	96.200298943998	0
0	378	96.450313544026	1
0	380	96.549480210693	0
0	382	101.058026952929	1
0	384	101.157193619596	0
0	386	101.391704592079	1
0	388	101.490871258746	0
0	390	101.930361728674	1
0	392	102.029528395341	0
0	394	102.495697339477	1
0	396	102.594864006144	0
0	398	103.859612653024	1
0	400	103.958779319691	0
0	402	104.096683523843	1
0	404	104.19585019051	0
0	406	104.870987912651	1
0	408	104.970154579318	0
0	410	106.689525750495	1
0	412	106.788692417162	0
0	414	106.975436118461	1
0	416	107.074602785128	0
0	418	108.421601158064	1
0	420	108.520767824731	0
0	422	110.613757442021	1
0	424	110.712924108688	0
0	426	112.06271063895	1
0	428	112.161877305617	0
0	430	113.922225346192	1
0	432	114.012435049984	2
0	435	114.111601716651	0
0	437	115.704865426196	1
0	439	115.804032092863	0
0	441	116.147883862784	1
0	443	116.247050529451	0
0	445	116.349785279504	1
0	447	116.448951946171	0
0	449	117.420811836268	1
0	451	117.519978502935	0
0	453	117.772967141579	1
0	455	117.872133808246	0
0	457	118.375106499758	1
0	459	118.474273166425	0
0	461	118.481948761218	1
0	463	118.493889667583	2
0	466	118.59305633425	0
0	468	120.541115933091	1
0	470	120.640282599758	0
0	472	120.705004502408	1
0	474	120.804171169075	0
0	476	120.957802143778	1
0	478	121.056968810445	0
0	480	122.084881422076	1
0	482	122.184048088743	0
0	484	123.255410190797	1
0	486	123.354576857464	0
0	488	123.725241266357	1
0	490	123.824407933024	0
0	492	124.942300541854	1
0	494	124.961214616385	2
0	497	125.060381283052	0
0	499	125.891386455838	1
0	501	125.990553122505	0
0	503	126.510846825038	1
0	505	126.610013491705	0
0	507	128.599082377078	1
0	509	128.698249043745	0
0	511	128.770277037665	1
0	513	128.842080215549	2
0	516	128.90626549264	2
0	519	129.005432159307	0
0	521	129.078551529221	1
0	523	129.177718195888	0
0	525	129.794352562225	1
0	527	129.893519228892	0
0	529	130.976250826739	1
0	531	131.075417493406	0
0	533	131.376433888851	1
0	535	131.475600555518	0
0	537	134.112716481941	1
0	539	134.211883148608	0
0	541	134.444344993883	1
0	543	134.54351166055	0
0	545	134.983223271337	1
0	547	135.082389938004	0
0	549	135.534193436513	1
0	551	135.63336010318	0
0	553	135.72454025849	1
0	555	135.810871003882	2
0	558	135.910037670549	0
0	560	137.549732573584	1
0	562	137.648899240251	0
0	564	137.969220356965	1
0	566	138.068387023632	0
0	568	139.055186285225	1
0	570	139.154352951892	0
0	572	140.734786973044	1
0	574	140.833953639711	0
0	576	140.914448318705	1
0	578	141.013614985372	0
0	580	141.159824640312	1
0	582	141.258991306979	0
0	584	142.133822457284	1
0	586	142.232989123951	0
0	588	142.474859094997	1
0	590	142.516518788191	2
0	593	142.615685454858	0
0	595	144.675008457989	1
0	597	144.774175124656	0
0	599	144.791936829495	1
0	601	144.891103496162	0
0	603	145.337221155377	1
0	605	145.436387822044	0
0	607	145.982936515164	1
0	609	146.082103181831	0
0	611	146.267946432943	1
0	613	146.338249179212	2
0	616	146.417762083705	2
0	619	146.516928750372	0
0	621	147.117780032726	1
0	623	147.216946699393	0
0	625	149.847747812062	1
0	627	149.946914478729	0
0	629	149.969395390798	1
0	631	150.068562057465	0
0	633	150.957697318933	1
0	635	151.0568639856	0
0	637	152.569488227671	1
0	639	152.668654894338	0
0	641	153.387845030228	1
0	643	153.487011696895	0
0	645	155.09785321582	1
0	647	155.197019882487	0
0	649	156.99309748986	1
0	651	157.092264156527	0
0	653	157.315615880315	1
0	655	157.414782546982	0
0	657	157.42607692832	1
0	659	157.525243594987	0
0	661	157.628208285589	1
0	663	157.727374952256	0
0	665	159.324316267359	1
0	667	159.423482934026	0
0	669	159.789620466607	1
0	671	159.888787133274	0
0	673	160.01638972217	1
0	675	160.115556388837	0
0	677	160.638407475618	1
0	679	160.737574142285	0
0	681	160.816355936726	1
0	683	160.915522603393	0
0	685	161.097343737233	1
0	687	161.1965104039	0
0	689	161.294143903398	1
0	691	161.393310570065	0
0	693	161.653952962355	1
0	695	161.753119629022	0
0	697	163.996159961583	1
0	699	164.09532662825	0
0	701	165.108913845884	1
0	703	165.208080512551	0
0	705	166.080274896934	1
0	707	166.179441563601	0
0	709	166.987625650444	1
0	711	166.99960077188	2
0	714	167.098767438547	0
0	716	168.183465283315	1
0	718	168.282631949982	0
0	720	168.420962345403	1
0	722	168.52012901207	0
0	724	173.265331929029	1
0	726	173.364498595696	0
0	728	173.748307198189	1
0	730	173.765784707138	2
0	733	173.864951373805	0
0	735	175.179410925288	1
0	737	175.278577591955	0
0	739	175.512498959868	1
0	741	175.611665626535	0
0	743	176.710988458807	1
0	745	176.810155125474	0
0	747	177.107615512576	1
0	749	177.206782179243	0
0	751	178.0434266559	1
0	753	178.142593322567	0
0	755	180.84816525572	1
0	757	180.947331922387	0
0	759	181.279896468932	1
0	761	181.379063135599	0
0	763	182.776541741522	1
0	765	182.875708408189	0
0	767	183.693978924794	1
0	769	183.793145591461	0
0	771	185.307093060456	1
0	773	185.406259727123	0
0	775	185.538982826432	1
0	777	185.638149493099	0
0	779	187.301838031577	1
0	781	187.307170987247	2
0	784	187.406337653914	0
0	786	187.794056372358	1
0	788	187.893223039025	0
0	790	188.858971403912	1
0	792	188.958138070579	0
0	794	189.636918153281	1
0	796	189.736084819948	0
0	798	189.859541345497	1
0	800	189.958708012164	0
0	802	190.40805623623	1
0	804	190.507222902897	0
0	806	191.591657755532	1
0	808	191.690824422199	0
0	810	194.317329926702	1
0	812	194.338601701396	2
0	815	194.437768368063	0
0	817	194.823591719016	1
0	819	194.922758385683	0
0	821	195.367867989494	1
0	823	195.467034656161	0
0	825	195.800627448285	1
0	827	195.899794114952	0
0	829	196.00112246326	1
0	831	196.100289129927	0
0	833	196.483293113905	1
0	835	196.582459780572	0
0	837	197.694615920393	1
0	839	197.79378258706	0
0	841	199.08857417078	1
0	843	199.187740837447	0
0	845	199.270639074295	1
0	847	199.369805740962	0
0	849	201.945431297131	1
0	851	202.044597963798	0
0	853	202.289542131995	1
0	855	202.388708798662	0
0	857	202.817004040606	1
0	859	202.916170707273	0
0	861	203.171130833673	1
0	863	203.27029750034	0
0	865	203.273232997814	1
0	867	203.281652220146	2
0	870	203.380818886813	0
0	872	204.277616651904	1
0	874	204.376783318571	0
0	876	205.168520624395	1
0	878	205.267687291062	0
0	880	205.272975194694	1
0	882	205.372141861361	0
0	884	205.414348532521	1
0	886	205.477205319826	2
0	889	205.57173540477	2
0	892	205.670902071437	0
0	894	206.156542201572	1
0	896	206.255708868239	0
0	898	207.652969932843	1
0	900	207.75213659951	0
0	902	208.491337090908	1
0	904	208.590503757575	0
0	906	208.678716934123	1
0	908	208.77788360079	0
0	910	209.485676550923	1
0	912	209.58484321759	0
0	914	210.208781368778	1
0	916	210.307948035445	0
0	918	210.380049070156	1
0	920	210.479215736823	0
0	922	210.590086062393	1
0	924	210.68925272906	0
0	926	210.708313626145	1
0	928	210.807480292812	0
0	930	212.415894256464	1
0	932	212.515060923131	0
0	934	213.901919508479	1
0	936	214.001086175146	0
0	938	215.416145026069	1
0	940	215.515311692736	0
0	942	216.540142577432	1
0	944	216.639309244099	0
0	946	217.429966472244	1
0	948	217.529133138911	0
0	950	217.930548454845	1
0	952	218.029715121512	0
0	954	220.678881836902	1
0	956	220.778048503569	0
0	958	223.316039793464	1
0	960	223.415206460131	0
0	962	223.668077649927	1
0	964	223.767244316594	0
0	966	224.075081287778	1
0	968	224.147300506891	2
0	971	224.246467173558	0
0	973	225.858776422438	1
0	975	225.957943089105	0
0	977	226.259524222326	1
0	979	226.358690888993	0
0	981	226.790901242012	1
0	983	226.890067908679	0
0	985	227.140540272519	1
0	987	227.239706939186	0
0	989	230.120430158191	1
0	991	230.219596824858	0
0	993	231.930348798435	1
0	995	232.029515465102	0
0	997	232.652625228438	1
0	999	232.751791895105	0
0	1001	233.736326680263	1
0	1003	233.83549334693	0
0	1005	234.162619370104	1
0	1007	234.261786036771	0
0	1009	234.74111424563	1
0	1011	234.840280912297	0
0	1013	235.041707812305	1
0	1015	235.140874478972	0
0	1017	235.674233162328	1
0	1019	235.773399828995	0
0	1021	236.069028846295	1
0	1023	236.168195512962	0
0	1025	237.068416442547	1
0	1027	237.167583109214	0
0	1029	238.764785579751	1
0	1031	238.863952246418	0
0	1033	240.60452904654	1
0	1035	240.703695713207	0
0	1037	241.038835207699	1
0	1039	241.138001874366	0
0	1041	242.789169098546	1
0	1043	242.888335765213	0
0	1045	243.101265521229	1
0	1047	243.200432187896	0
0	1049	243.376617783131	1
0	1051	243.475784449798	0
0	1053	245.554395350617	1
0	1055	245.653562017284	0
0	1057	245.787039854586	1
0	1059	245.886206521253	0
0	1061	245.908744379009	1
0	1063	246.007911045676	0
0	1065	246.774469524139	1
0	1067	246.873636190806	0
0	1069	248.591761287407	1
0	1071	248.690927954074	0
0	1073	249.938450963882	1
0	1075	250.037617630549	0
0	1077	252.128192804959	1
0	1079	252.227359471626	0
0	1081	252.522278451165	1
0	1083	252.621445117832	0
0	1085	254.19359380106	1
0	1087	254.292760467727	0
0	1089	256.302104398402	1
0	1091	256.332424084765	2
0	1094	256.431590751432	0
0	1096	256.854136137025	1
0	1098	256.94390667548	2
0	1101	257.043073342147	0
0	1103	257.218359780612	1
0	1105	257.317526447279	0
0	1107	259.421532630037	1
0	1109	259.520699296704	0
0	1111	259.761514106298	1
0	1113	259.860680772965	0
0	1115	263.416153838455	1
0	1117	263.515320505122	0
0	1119	263.882257343085	1
0	1121	263.981424009752	0
0	1123	265.69636359359	1
0	1125	265.795530260257	0
0	1127	265.918766495579	1
0	1129	266.017933162246	0
0	1131	266.177518212164	1
0	1133	266.276684878831	0
0	1135	267.658483732501	1
0	1137	267.757650399168	0
0	1139	268.581175187245	1
0	1141	268.680341853912	0
0	1143	268.909055215724	1
0	1145	269.008221882391	0
0	1147	269.522033218833	1
0	1149	269.6211998855	0
0	1151	270.031438448361	1
0	1153	270.130605115028	0
0	1155	271.281688716319	1
0	1157	271.380855382986	0
0	1159	272.166733944675	1
0	1161	272.181727434394	2
0	1164	272.280894101061	0
0	1166	272.732488601172	1
0	1168	272.831655267839	0
0	1170	274.959736136218	1
0	1172	275.058902802885	0
0	1174	275.343966419905	1
0	1176	275.443133086572	0
0	1178	277.478655848723	1
0	1180	277.506724772574	2
0	1183	277.605891439241	0
0	1185	279.035203377393	1
0	1187	279.13437004406	0
0	1189	279.640016666867	1
0	1191	279.739183333534	0
0	1193	281.034677267406	1
0	1195	281.133843934073	0
0	1197	281.530716931581	1
0	1199	281.629883598248	0
0	1201	281.653446858309	1
0	1203	281.752613524976	0
0	1205	282.092283896881	1
0	1207	282.162218913348	2
0	1210	282.261385580015	0
0	1212	282.811908735948	1
0	1214	282.911075402615	0
0	1216	284.922421038579	1
0	1218	285.021587705246	0
0	1220	285.07271528565	1
0	1222	285.171881952317	0
0	1224	285.243454929655	1
0	1226	285.278951222294	2
0	1229	285.378117888961	0
0	1231	286.316670679584	1
0	1233	286.415837346251	0
0	1235	286.859890214855	1
0	1237	286.959056881522	0
0	1239	288.197130438251	1
0	1241	288.296297104918	0
0	1243	289.242664348611	1
0	1245	289.296726079175	2
0	1248	289.395892745842	0
0	1250	290.738594570293	1
0	1252	290.83776123696	0
0	1254	292.012402199021	1
0	1256	292.111568865688	0
0	1258	295.44703073861	1
0	1260	295.546197405277	0
0	1262	295.915936381809	1
0	1264	296.015103048476	0
0	1266	296.874584066741	1
0	1268	296.973750733408	0
0	1270	298.67175216876	1
0	1272	298.770918835427	0
0	1274	299.663741626803	1
0	1276	299.76290829347	0
0	1278	300.101577606501	1
0	1280	300.200744273168	0
0	1282	301.184307442412	1
0	1284	301.283474109079	0
0	1286	302.293384177977	1
0	1288	302.392550844644	0
0	1290	302.63863248079	1
0	1292	302.737799147457	0
0	1294	303.006422740207	1
0	1296	303.105589406874	0
0	1298	303.269468510417	1
0	1300	303.368635177084	0
0	1302	304.737787887972	1
0	1304	304.836954554639	0
0	1306	305.007461568566	1
0	1308	305.106628235233	0
0	1310	305.262261457189	1
0	1312	305.361428123856	0
0	1314	305.594817096569	1
0	1316	305.693983763236	0
0	1318	306.702867943199	1
0	1320	306.802034609866	0
0	1322	306.868942465815	1
0	1324	306.968109132482	0
0	1326	308.373800117929	1
0	1328	308.472966784596	0
0	1330	308.602654796785	1
0	1332	308.701821463452	0
0	1334	308.871867953665	1
0	1336	308.971034620332	0
0	1338	309.161407139749	1
0	1340	309.260573806416	0
0	1342	309.64138007864	1
0	1344	309.740546745307	0
0	1346	309.890628859944	1
0	1348	309.989795526611	0
0	1350	311.930742551075	1
0	1352	312.029909217742	0
0	1354	312.249838305119	1
0	1356	312.349004971786	0
0	1358	313.186018226695	1
0	1360	313.285184893362	0
0	1362	313.627380933906	1
0	1364	313.726547600573	0
0	1366	313.755978061087	1
0	1368	313.855144727754	0
0	1370	314.223910113853	1
0	1372	314.32307678052	0
0	1374	314.625073769112	1
0	1376	314.632524213918	2
0	1379	314.731690880585	0
0	1381	315.347295994386	1
0	1383	315.373583479494	2
0	1386	315.472750146161	0
0	1388	316.530827859804	1
0	1390	316.629994526471	0
0	1392	318.188792737231	1
0	1394	318.287959403898	0
0	1396	318.812350174822	1
0	1398	318.911516841489	0
0	1400	319.207791207656	1
0	1402	319.306957874323	0
0	1404	319.879764692443	1
0	1406	319.969973688619	2
0	1409	320.050266076359	2
0	1412	320.149432743026	0
0	1414	320.198334350619	1
0	1416	320.297501017286	0
0	1418	321.340812989903	1
0	1420	321.410184624047	2
0	1423	321.509351290714	0
0	1425	324.606949669699	1
0	1427	324.706116336366	0
0	1429	326.014266431316	1
0	1431	326.113433097983	0
0	1433	326.155528052115	1
0	1435	326.254694718782	0
0	1437	329.391211860156	1
0	1439	329.490378526823	0
0	1441	329.601153839713	1
0	1443	329.70032050638	0
0	1445	330.752165517347	1
0	1447	330.851332184014	0
0	1449	331.511630198768	1
0	1451	331.610796865435	0
0	1453	334.022717907849	1
0	1455	334.121884574516	0
0	1457	334.559487538589	1
0	1459	334.597162131848	2
0	1462	334.696328798515	0
0	1464	334.968095057685	1
0	1466	335.067261724352	0
0	1468	335.421148476467	1
0	1470	335.520315143134	0
0	1472	336.570467568628	1
0	1474	336.669634235295	0
0	1476	336.849365827877	1
0	1478	336.948532494544	0
0	1480	337.553873568329	1
0	1482	337.653040234996	0
0	1484	340.668671521764	1
0	1486	340.767838188431	0
0	1488	341.60851016432	1
0	1490	341.707676830987	0
0	1492	342.354966659728	1
0	1494	342.454133326395	0
0	1496	342.876187148844	1
0	1498	342.975353815511	0
0	1500	343.514648181256	1
0	1502	343.613814847923	0
0	1504	344.025888934392	1
0	1506	344.125055601059	0
0	1508	344.927169222865	1
0	1510	345.026335889532	0
0	1512	347.13681883285	1
0	1514	347.235985499517	0
0	1516	348.02809414799	1
0	1518	348.117302030591	2
0	1521	348.216468697258	0
0	1523	348.330250588428	1
0	1525	348.429417255095	0
0	1527	348.882492220299	1
0	1529	348.981658886966	0
0	1531	349.188882965772	1
0	1533	349.288049632439	0
0	1535	350.574583453345	1
0	1537	350.673750120012	0
0	1539	350.893671480686	1
0	1541	350.992838147353	0
0	1543	351.045764435436	1
0	1545	351.144931102103	0
0	1547	351.997328331582	1
0	1549	352.096494998249	0
0	1551	352.168035887093	1
0	1553	352.26720255376	0
0	1555	353.803169126566	1
0	1557	353.902335793233	0
0	1559	354.527762062675	1
0	1561	354.626928729342	0
0	1563	355.011006990983	1
0	1565	355.11017365765	0
0	1567	355.623962597472	1
0	1569	355.723129264139	0
0	1571	358.284351507121	1
0	1573	358.383518173788	0
0	1575	359.325093928441	1
0	1577	359.424260595108	0
0	1579	360.271873359917	1
0	1581	360.371040026584	0
0	1583	361.12927752083	1
0	1585	361.228444187497	0
0	1587	362.592261799857	1
0	1589	362.691428466524	0
0	1591	363.961325269263	1
0	1593	364.06049193593	0
0	1595	364.454845766878	1
0	1597	364.554012433545	0
0	1599	364.9521490353	1
0	1601	365.051315701967	0
0	1603	365.956526978614	1
0	1605	366.055693645281	0
0	1607	366.11854849584	1
0	1609	366.217715162507	0
0	1611	366.809088421369	1
0	1613	366.908255088036	0
0	1615	367.238716319733	1
0	1617	367.3378829864	0
0	1619	368.974633027996	1
0	1621	369.00322293787	2
0	1624	369.102389604537	0
0	1626	369.196273874521	1
0	1628	369.295440541188	0
0	1630	370.39521427858	1
0	1632	370.494380945247	0
0	1634	371.303634041883	1
0	1636	371.328645655246	2
0	1639	371.427812321913	0
0	1641	373.313075717574	1
0	1643	373.412242384241	0
0	1645	374.663835717522	1
0	1647	374.74880289261	2
0	1650	374.847969559277	0
0	1652	374.893354932005	1
0	1654	374.992521598672	0
0	1656	376.111458979355	1
0	1658	376.210625646022	0
0	1660	376.493733914959	1
0	1662	376.592900581626	0
0	1664	380.43983887073	1
0	1666	380.539005537397	0
0	1668	381.738468666237	1
0	1670	381.837635332904	0
0	1672	382.307877294637	1
0	1674	382.407043961304	0
0	1676	383.194031016205	1
0	1678	383.293197682872	0
0	1680	384.925609252176	1
0	1682	385.024775918843	0
0	1684	385.051849887018	1
0	1686	385.151016553685	0
0	1688	385.374198299478	1
0	1690	385.473364966145	0
0	1692	386.991329868205	1
0	1694	387.090496534872	0
0	1696	387.602851441284	1
0	1698	387.702018107951	0
0	1700	388.852877569968	1
0	1702	388.952044236635	0
0	1704	389.079464051409	1
0	1706	389.178630718076	0
0	1708	391.809803849302	1
0	1710	391.908970515969	0
0	1712	392.159095843591	1
0	1714	392.258262510258	0
0	1716	392.39873634339	1
0	1718	392.497903010057	0
0	1720	394.606513121108	1
0	1722	394.673561200843	2
0	1725	394.77272786751	0
0	1727	395.414524192734	1
0	1729	395.513690859401	0
0	1731	395.717707615443	1
0	1733	395.81687428211	0
0	1735	396.344383040886	1
0	1737	396.443549707553	0
0	1739	397.195881725924	1
0	1741	397.295048392591	0
0	1743	398.239988231362	1
0	1745	398.339154898029	0
0	1747	398.720037854818	1
0	1749	398.819204521485	0
0	1751	399.769057231906	1
0	1753	399.809978554924	2
0	1756	399.909145221591	0
0	1758	400.577247157627	1
0	1760	400.676413824294	0
0	1762	400.798511120064	1
0	1764	400.897677786731	0
0	1766	402.215221942817	1
0	1768	402.314388609484	0
0	1770	402.315247914975	1
0	1772	402.414414581642	0
0	1774	403.855243122219	1
0	1776	403.954409788886	0
0	1778	404.56760708102	1
0	1780	404.666773747687	0
0	1782	406.265117485134	1
0	1784	406.364284151801	0
0	1786	407.23266407582	1
0	1788	407.331830742487	0
0	1790	407.416316536046	1
0	1792	407.515483202713	0
0	1794	408.481713588355	1
0	1796	408.580880255022	0
0	1798	408.768892909114	1
0	1800	408.868059575781	0
0	1802	409.016992523251	1
0	1804	409.116159189918	0
0	1806	410.256317038768	1
0	1808	410.355483705435	0
0	1810	411.270444274768	1
0	1812	411.369610941435	0
0	1814	411.908983045276	1
0	1816	412.008149711943	0
0	1818	412.762562478163	1
0	1820	412.86172914483	0
0	1822	412.899111940058	1
0	1824	412.998278606725	0
0	1826	413.018345980113	1
0	1828	413.11751264678	0
0	1830	413.424292865459	1
0	1832	413.523459532126	0
0	1834	414.181972916816	1
0	1836	414.281139583483	0
0	1838	414.536537441137	1
0	1840	414.635704107804	0
0	1842	416.812828903849	1
0	1844	416.911995570516	0
0	1846	417.818911439083	1
0	1848	417.872029180232	2
0	1851	417.971195846899	0
0	1853	419.04144943152	1
0	1855	419.06753023422	2
0	1858	419.166696900887	0
0	1860	422.429003934771	1
0	1862	422.528170601438	0
0	1864	422.589986271208	1
0	1866	422.689152937875	0
0	1868	422.789381052655	1
0	1870	422.888547719322	0
0	1872	423.815983941359	1
0	1874	423.915150608026	0
0	1876	425.059114853137	1
0	1878	425.158281519804	0
0	1880	425.275487699121	1
0	1882	425.374654365788	0
0	1884	426.348411433441	1
0	1886	426.447578100108	0
0	1888	427.856584559003	1
0	1890	427.95575122567	0
0	1892	428.612654127165	1
0	1894	428.711820793832	0
0	1896	429.200741107434	1
0	1898	429.299907774101	0
0	1900	429.461655918575	1
0	1902	429.560822585242	0
0	1904	431.460383157732	1
0	1906	431.559549824399	0
0	1908	433.790979455815	1
0	1910	433.890146122482	0
0	1912	435.343639383374	1
0	1914	435.442806050041	0
0	1916	435.77159019314	1
0	1918	435.870756859807	0
0	1920	436.545192673685	1
0	1922	436.644359340352	0
0	1924	438.206261132223	1
0	1926	438.30542779889	0
0	1928	438.674986148339	1
0	1930	438.774152815006	0
0	1932	439.387658359279	1
0	1934	439.486825025946	0
0	1936	439.573618963842	1
0	1938	439.672785630509	0
0	1940	442.20061888006	1
0	1942	442.299785546727	0
0	1944	442.90294414458	1
0	1946	443.002110811247	0
0	1948	443.055866159119	1
0	1950	443.148535264016	2
0	1953	443.189487270385	2
0	1955	443.18972693597	2
0	1959	443.288893602637	0
0	1961	444.527719319775	1
0	1963	444.626885986442	0
0	1965	444.774253115889	1
0	1967	444.873419782556	0
0	1969	445.709746029082	1
0	1971	445.808912695749	0
0	1973	446.269874874786	1
0	1975	446.369041541453	0
0	1977	448.688371890819	1
0	1979	448.730209878544	2
0	1982	448.829376545211	0
0	1984	449.421049062504	1
0	1986	449.520215729171	0
0	1988	450.345778093072	1
0	1990	450.444944759739	0
0	1992	450.599294195227	1
0	1994	450.698460861894	0
0	1996	452.285830266872	1
0	1998	452.384996933539	0
0	2000	452.739760869774	1
0	2002	452.78421466841	2
0	2005	452.883381335077	0
0	2007	453.846378032212	1
0	2009	453.945544698879	0
0	2011	455.570660541049	1
0	2013	455.669827207716	0
0	2015	455.882956196005	1
0	2017	455.982122862672	0
0	2019	456.552972588981	1
0	2021	456.652139255648	0
0	2023	456.679624897389	1
0	2025	456.697640478013	2
0	2028	456.79680714468	0
0	2030	459.789849108985	1
0	2032	459.889015775652	0
0	2034	459.92943147402	1
0	2036	460.028598140687	0
0	2038	460.544019828733	1
0	2040	460.63116009299	2
0	2043	460.730326759657	0
0	2045	461.212552763863	1
0	2047	461.31171943053	0
0	2049	462.622094640919	1
0	2051	462.721261307586	0
0	2053	463.147624666275	1
0	2055	463.246791332942	0
0	2057	466.011221040544	1
0	2059	466.110387707211	0
0	2061	468.24898519872	1
0	2063	468.348151865387	0
0	2065	468.443168687509	1
0	2067	468.542335354176	0
0	2069	469.027449547606	1
0	2071	469.126616214273	0
0	2073	469.462039263686	1
0	2075	469.561205930353	0
0	2077	470.413249575071	1
0	2079	470.512416241738	0
0	2081	470.738979369514	1
0	2083	470.833686953523	2
0	2086	470.85275936687	2
0	2089	470.951926033537	0
0	2091	472.001821970647	1
0	2093	472.100988637314	0
0	2095	472.254860845365	1
0	2097	472.354027512032	0
0	2099	474.45570896117	1
0	2101	474.554875627837	0
0	2103	475.199551027271	1
0	2105	475.298717693938	0
0	2107	475.88171039381	1
0	2109	475.980877060477	0
0	2111	476.418773842511	1
0	2113	476.517940509178	0
0	2115	477.631722904907	1
0	2117	477.730889571574	0
0	2119	478.355989227257	1
0	2121	478.455155893924	0
0	2123	479.965860425688	1
0	2125	480.065027092355	0
0	2127	480.487145585869	1
0	2129	480.506358024771	2
0	2132	480.605524691438	0
0	2134	480.795962259814	1
0	2136	480.895128926481	0
0	2138	482.911275610961	1
0	2140	483.010442277628	0
0	2142	483.837113629977	1
0	2144	483.936280296644	0
0	2146	485.129334115873	1
0	2148	485.22850078254	0
0	2150	485.479004352777	1
0	2152	485.578171019444	0
0	2154	486.764595666761	1
0	2156	486.863762333428	0
0	2158	488.28667844914	1
0	2160	488.294067998809	2
0	2163	488.393234665476	0
0	2165	488.639315997397	1
0	2167	488.738482664064	0
0	2169	489.045076859941	1
0	2171	489.144243526608	0
0	2173	489.419164838171	1
0	2175	489.518331504838	0
0	2177	489.875464506865	1
0	2179	489.974631173532	0
0	2181	491.678989172551	1
0	2183	491.778155839218	0
0	2185	492.24812408427	1
0	2187	492.347290750937	0
0	2189	492.656385958851	1
0	2191	492.755552625518	0
0	2193	494.430301724956	1
0	2195	494.529468391623	0
0	2197	494.775616261499	1
0	2199	494.874782928166	0
0	2201	494.995170643337	1
0	2203	495.094337310004	0
0	2205	495.673739293582	1
0	2207	495.772905960249	0
0	2209	496.935909714856	1
0	2211	497.035076381523	0