version 3
run PureAlohaExperiment-4-20250302-16:21:59-14228
attr configname PureAlohaExperiment
attr datetime 20250302-16:21:59
attr datetimef 20250302-162159
attr experiment PureAlohaExperiment
attr inifile omnetpp.ini
attr iterationvars "$numHosts=10, $iaMean=5"
attr iterationvarsd numHosts=10/iaMean=5
attr iterationvarsf numHosts=10,iaMean=5-
attr measurement "$numHosts=10, $iaMean=5"
attr network Aloha
attr processid 14228
attr repetition 0
attr replication #0
attr resultdir results
attr runnumber 4
attr seedset 4
itervar iaMean 5
itervar numHosts 10
config description "Channel utilization in the function of packet generation frequency"
config repeat 1
config sim-time-limit 90min
config Aloha.numHosts 10
config Aloha.host[*].iaTime exponential(5s)
config network Aloha
config Aloha.numHosts 20
config Aloha.slotTime 0s
config Aloha.txRate 9.6kbps
config Aloha.host[*].pkLenBits 952b
config **.x "uniform(0m, 1000m)"
config **.y "uniform(0m, 1000m)"
config **.animationHoldTimeOnCollision 0s
config **.idleAnimationSpeed 1
config **.transmissionEdgeAnimationSpeed 1e-6
config **.midTransmissionAnimationSpeed 1e-1

vector 0 Aloha.server serverChannelState:vector ETV
attr enum IDLE=0,TRANSMISSION=1,COLLISION=2
attr recordingmode vector
attr source channelState
attr title "Channel state"
vector 1 Aloha.server channelUtilization:vector ETV
attr interpolationmode linear
attr recordingmode vector
attr source timeavg(receive)
attr title "channel utilization"
vector 2 Aloha.host[0] radioState:vector ETV
attr enum IDLE=0,TRANSMIT=1
attr recordingmode vector
attr source state
attr title "Radio state"
vector 3 Aloha.host[1] radioState:vector ETV
attr enum IDLE=0,TRANSMIT=1
attr recordingmode vector
attr source state
attr title "Radio state"
vector 4 Aloha.host[2] radioState:vector ETV
attr enum IDLE=0,TRANSMIT=1
attr recordingmode vector
attr source state
attr title "Radio state"
vector 5 Aloha.host[3] radioState:vector ETV
attr enum IDLE=0,TRANSMIT=1
attr recordingmode vector
attr source state
attr title "Radio state"
vector 6 Aloha.host[4] radioState:vector ETV
attr enum IDLE=0,TRANSMIT=1
attr recordingmode vector
attr source state
attr title "Radio state"
vector 7 Aloha.host[5] radioState:vector ETV
attr enum IDLE=0,TRANSMIT=1
attr recordingmode vector
attr source state
attr title "Radio state"
vector 8 Aloha.host[6] radioState:vector ETV
attr enum IDLE=0,TRANSMIT=1
attr recordingmode vector
attr source state
attr title "Radio state"
vector 9 Aloha.host[7] radioState:vector ETV
attr enum IDLE=0,TRANSMIT=1
attr recordingmode vector
attr source state
attr title "Radio state"
vector 10 Aloha.host[8] radioState:vector ETV
attr enum IDLE=0,TRANSMIT=1
attr recordingmode vector
attr source state
attr title "Radio state"
vector 11 Aloha.host[9] radioState:vector ETV
attr enum IDLE=0,TRANSMIT=1
attr recordingmode vector
attr source state
attr title "Radio state"
0	0	0	0
0	2	0.894693175886	1
0	4	0.993859842553	0
0	6	1.03899340738	1
0	8	1.101273150726	2
0	11	1.200439817393	0
0	13	2.243140720145	1
0	15	2.342307386812	0
0	17	2.48598200145	1
0	19	2.585148668117	0
0	21	2.810972668269	1
0	23	2.910139334936	0
0	25	3.643895871147	1
0	27	3.743062537814	0
0	29	3.891767086573	1
0	31	3.99093375324	0
0	33	4.247326927671	1
0	35	4.346493594338	0
0	37	4.548240500536	1
0	39	4.633373743254	2
0	42	4.732540409921	0
0	44	4.743447367495	1
0	46	4.842614034162	0
0	48	5.045580189915	1
0	50	5.144746856582	0
0	52	5.878684244671	1
0	54	5.977850911338	0
0	56	7.211298977055	1
0	58	7.310465643722	0
0	60	8.073058052445	1
0	62	8.172224719112	0
0	64	8.355180202257	1
0	66	8.454346868924	0
0	68	9.405100012914	1
0	70	9.504266679581	0
0	72	9.938626168594	1
0	74	10.037792835261	0
0	76	10.427322640908	1
0	78	10.526489307575	0
0	80	10.866328821369	1
0	82	10.965495488036	0
0	84	11.128330303582	1
0	86	11.227496970249	0
0	88	12.194578765931	1
0	90	12.293745432598	0
0	92	12.322618319948	1
0	94	12.415414153067	2
0	97	12.514580819734	0
0	99	12.86079745702	1
0	101	12.959964123687	0
0	103	13.213192461451	1
0	105	13.312359128118	0
0	107	15.556241865676	1
0	109	15.655408532343	0
0	111	15.937352544786	1
0	113	16.036519211453	0
0	115	17.370849376775	1
0	117	17.470016043442	0
0	119	19.124238198325	1
0	121	19.223404864992	0
0	123	19.435647592175	1
0	125	19.534814258842	0
0	127	19.609964327299	1
0	129	19.709130993966	0
0	131	19.789434925856	1
0	133	19.888601592523	0
0	135	20.480310919359	1
0	137	20.491969307157	2
0	140	20.591135973824	0
0	142	20.77320184252	1
0	144	20.872368509187	0
0	146	21.152007441048	1
0	148	21.251174107715	0
0	150	21.400699474824	1
0	152	21.499866141491	0
0	154	21.733571657229	1
0	156	21.832738323896	0
0	158	22.234358909892	1
0	160	22.333525576559	0
0	162	22.46698948203	1
0	164	22.549969767801	2
0	167	22.649136434468	0
0	169	23.018827451058	1
0	171	23.117994117725	0
0	173	23.396676121901	1
0	175	23.495842788568	0
0	177	23.562806641408	1
0	179	23.661973308075	0
0	181	25.01783055022	1
0	183	25.040995138056	2
0	186	25.140161804723	0
0	188	25.439382903172	1
0	190	25.538549569839	0
0	192	26.049459083621	1
0	194	26.062448484222	2
0	197	26.161615150889	0
0	199	27.493128290225	1
0	201	27.592294956892	0
0	203	27.682921614835	1
0	205	27.724311361688	2
0	208	27.823478028355	0
0	210	28.066910891839	1
0	212	28.166077558506	0
0	214	28.551648353621	1
0	216	28.570337303552	2
0	218	28.61696540415	2
0	222	28.716132070817	0
0	224	28.854078874732	1
0	226	28.953245541399	0
0	228	29.152079505333	1
0	230	29.251246172	0
0	232	30.363324517177	1
0	234	30.462491183844	0
0	236	30.882937959874	1
0	238	30.982104626541	0
0	240	31.024130383911	1
0	242	31.051330475567	2
0	245	31.150497142234	0
0	247	31.156017046603	1
0	249	31.25518371327	0
0	251	31.584658260622	1
0	253	31.683824927289	0
0	255	32.404459364532	1
0	257	32.444376437694	2
0	260	32.543543104361	0
0	262	32.586298807025	1
0	264	32.685465473692	0
0	266	32.786372900034	1
0	268	32.885539566701	0
0	270	32.952694690619	1
0	272	33.051861357286	0
0	274	33.09207855396	1
0	276	33.141670407145	2
0	279	33.203911707299	2
0	282	33.303078373966	0
0	284	34.538107640162	1
0	286	34.637274306829	0
0	288	35.074370263161	1
0	290	35.173536929828	0
0	292	35.30067791052	1
0	294	35.305640379829	2
0	297	35.404807046496	0
0	299	35.69981588576	1
0	301	35.798434457336	2
0	304	35.847950803254	2
0	307	35.947117469921	0
0	309	36.264936268127	1
0	311	36.364102934794	0
0	313	36.806170506362	1
0	315	36.905337173029	0
0	317	37.40685038122	1
0	319	37.506017047887	0
0	321	38.31527830599	1
0	323	38.414444972657	0
0	325	38.843570204428	1
0	327	38.942736871095	0
0	329	39.402617640255	1
0	331	39.501784306922	0
0	333	39.731940470578	1
0	335	39.831107137245	0
0	337	41.630605428085	1
0	339	41.682859614228	2
0	342	41.782026280895	0
0	344	42.19770667058	1
0	346	42.296873337247	0
0	348	43.978362095268	1
0	350	43.985206544853	2
0	353	44.08437321152	0
0	355	44.891374119005	1
0	357	44.990540785672	0
0	359	45.820490999369	1
0	361	45.919657666036	0
0	363	46.095533699955	1
0	365	46.139636563609	2
0	368	46.238803230276	0
0	370	47.279764522605	1
0	372	47.351927611963	2
0	375	47.45109427863	0
0	377	48.475708390207	1
0	379	48.574875056874	0
0	381	49.39108829023	1
0	383	49.490254956897	0
0	385	50.164439501857	1
0	387	50.263606168524	0
0	389	51.058408304084	1
0	391	51.157574970751	0
0	393	51.599882267937	1
0	395	51.699048934604	0
0	397	52.115844154284	1
0	399	52.215010820951	0
0	401	53.48169930814	1
0	403	53.580865974807	0
0	405	53.80924217706	1
0	407	53.908408843727	0
0	409	53.989732265298	1
0	411	54.018098515532	2
0	414	54.117265182199	0
0	416	54.577784954497	1
0	418	54.589095078333	2
0	421	54.688261745	0
0	423	55.316602100447	1
0	425	55.415768767114	0
0	427	55.572219295845	1
0	429	55.574785848664	2
0	432	55.673952515331	0
0	434	55.799498651827	1
0	436	55.824659395348	2
0	439	55.902812985527	2
0	442	56.001979652194	0
0	444	56.202869023601	1
0	446	56.255868082064	2
0	449	56.33838602296	2
0	452	56.437552689627	0
0	454	56.76241327974	1
0	456	56.861579946407	0
0	458	57.318015691807	1
0	460	57.326442493907	2
0	463	57.425609160574	0
0	465	57.553218801014	1
0	467	57.652385467681	0
0	469	59.286676119799	1
0	471	59.385842786466	0
0	473	60.238491106213	1
0	475	60.33765777288	0
0	477	60.524862456344	1
0	479	60.624029123011	0
0	481	60.7121908187	1
0	483	60.811357485367	0
0	485	60.920636501521	1
0	487	61.019803168188	0
0	489	61.26856053231	1
0	491	61.367727198977	0
0	493	61.645878296632	1
0	495	61.745044963299	0
0	497	61.898074662539	1
0	499	61.997241329206	0
0	501	62.192494723029	1
0	503	62.291661389696	0
0	505	62.326692347416	1
0	507	62.425859014083	0
0	509	62.622263026852	1
0	511	62.721429693519	0
0	513	63.641522898372	1
0	515	63.740689565039	0
0	517	63.830959154723	1
0	519	63.93012582139	0
0	521	65.04460302897	1
0	523	65.143769695637	0
0	525	65.833965001965	1
0	527	65.933131668632	0
0	529	65.940658819621	1
0	531	66.039825486288	0
0	533	66.335892751201	1
0	535	66.435059417868	0
0	537	67.923906746649	1
0	539	68.023073413316	0
0	541	68.052094059321	1
0	543	68.151260725988	0
0	545	68.169098460028	1
0	547	68.268265126695	0
0	549	69.779651191634	1
0	551	69.878817858301	0
0	553	70.709651382516	1
0	555	70.808818049183	0
0	557	71.379115966159	1
0	559	71.478282632826	0
0	561	72.666639210092	1
0	563	72.765805876759	0
0	565	73.448053953345	1
0	567	73.547220620012	0
0	569	74.11844316036	1
0	571	74.217609827027	0
0	573	74.933116797616	1
0	575	75.032283464283	0
0	577	75.213245426862	1
0	579	75.312412093529	0
0	581	75.56453995414	1
0	583	75.663706620807	0
0	585	75.749597639581	1
0	587	75.837394544176	2
0	590	75.936561210843	0
0	592	76.064234206022	1
0	594	76.163400872689	0
0	596	76.458718799381	1
0	598	76.557885466048	0
0	600	76.992091953447	1
0	602	77.091258620114	0
0	604	77.13987550329	1
0	606	77.239042169957	0
0	608	77.921698321812	1
0	610	77.93084091795	2
0	613	78.030007584617	0
0	615	78.286637075333	1
0	617	78.385803742	0
0	619	78.596102090613	1
0	621	78.69526875728	0
0	623	78.713994482911	1
0	625	78.813161149578	0
0	627	79.044200148285	1
0	629	79.143366814952	0
0	631	80.318645011908	1
0	633	80.417811678575	0
0	635	81.189598982314	1
0	637	81.229189660841	2
0	640	81.328356327508	0
0	642	83.647320571564	1
0	644	83.746487238231	0
0	646	83.967226776788	1
0	648	84.066393443455	0
0	650	84.159068753418	1
0	652	84.258235420085	0
0	654	84.359244608275	1
0	656	84.458411274942	0
0	658	84.545667298082	1
0	660	84.644833964749	0
0	662	84.802666610955	1
0	664	84.901833277622	0
0	666	85.055203292355	1
0	668	85.154369959022	0
0	670	85.258247382736	1
0	672	85.276977403392	2
0	675	85.376144070059	0
0	677	85.977747082587	1
0	679	86.076913749254	0
0	681	86.091568181071	1
0	683	86.190734847738	0
0	685	86.431053598297	1
0	687	86.530220264964	0
0	689	86.612095664574	1
0	691	86.711262331241	0
0	693	86.917394104709	1
0	695	87.016560771376	0
0	697	87.145505376345	1
0	699	87.244672043012	0
0	701	87.360149531771	1
0	703	87.459316198438	0
0	705	88.96330913479	1
0	707	89.062475801457	0
0	709	89.662053779959	1
0	711	89.761220446626	0
0	713	90.951603200536	1
0	715	91.050769867203	0
0	717	91.075835282531	1
0	719	91.175001949198	0
0	721	93.847181100033	1
0	723	93.9463477667	0
0	725	94.523826323016	1
0	727	94.622992989683	0
0	729	94.642636009743	1
0	731	94.739148707795	2
0	734	94.838315374462	0
0	736	95.045226278911	1
0	738	95.144392945578	0
0	740	95.181152872505	1
0	742	95.280319539172	0
0	744	96.066292989674	1
0	746	96.080695587677	2
0	749	96.179862254344	0
0	751	96.642837896449	1
0	753	96.742004563116	0
0	755	96.789878830912	1
0	757	96.827489051232	2
0	760	96.926655717899	0
0	762	96.999661507138	1
0	764	97.098828173805	0
0	766	97.940860893701	1
0	768	98.026453243149	2
0	771	98.125619909816	0
0	773	99.79492699717	1
0	775	99.87584702378	2
0	778	99.975013690447	0
0	780	100.666567358112	1
0	782	100.765734024779	0
0	784	100.850349984504	1
0	786	100.949516651171	0
0	788	101.421848804043	1
0	790	101.52101547071	0
0	792	101.720203769358	1
0	794	101.819370436025	0
0	796	102.905828411976	1
0	798	103.004995078643	0
0	800	103.867794464253	1
0	802	103.885175215468	2
0	805	103.984341882135	0
0	807	104.138653458213	1
0	809	104.23782012488	0
0	811	104.290227177446	1
0	813	104.389393844113	0
0	815	104.836336492478	1
0	817	104.841233624667	2
0	820	104.940400291334	0
0	822	106.137016252356	1
0	824	106.236182919023	0
0	826	106.241657544187	1
0	828	106.340824210854	0
0	830	106.423973494639	1
0	832	106.523140161306	0
0	834	106.963922590912	1
0	836	107.063089257579	0
0	838	107.267673844212	1
0	840	107.366840510879	0
0	842	108.088578891211	1
0	844	108.187745557878	0
0	846	108.26824651426	1
0	848	108.367413180927	0
0	850	110.601120567185	1
0	852	110.700287233852	0
0	854	111.182683568579	1
0	856	111.281850235246	0
0	858	111.377590204944	1
0	860	111.476756871611	0
0	862	111.649080684308	1
0	864	111.748247350975	0
0	866	112.74727988331	1
0	868	112.794863323788	2
0	871	112.894029990455	0
0	873	112.97832488404	1
0	875	113.077491550707	0
0	877	113.393437596536	1
0	879	113.492604263203	0
0	881	114.288064324358	1
0	883	114.387230991025	0
0	885	114.618823983377	1
0	887	114.717990650044	0
0	889	115.808338400566	1
0	891	115.907505067233	0
0	893	116.905033724171	1
0	895	117.004200390838	0
0	897	117.770759562236	1
0	899	117.869926228903	0
0	901	118.203640385606	1
0	903	118.222889357097	2
0	906	118.322056023764	0
0	908	118.818582465059	1
0	910	118.917749131726	0
0	912	119.026465874515	1
0	914	119.125632541182	0
0	916	119.460436489562	1
0	918	119.559603156229	0
0	920	119.878668670555	1
0	922	119.977835337222	0
0	924	120.009555441895	1
0	926	120.108722108562	0
0	928	121.774415844565	1
0	930	121.873582511232	0
0	932	122.110741682787	1
0	934	122.209908349454	0
0	936	122.396651821089	1
0	938	122.495818487756	0
0	940	123.484937087114	1
0	942	123.493001521084	2
0	945	123.592168187751	0
0	947	124.452164149359	1
0	949	124.551330816026	0
0	951	124.592998919815	1
0	953	124.692165586482	0
0	955	124.812532575887	1
0	957	124.84279955504	2
0	960	124.941966221707	0
0	962	125.290813660295	1
0	964	125.389980326962	0
0	966	125.640353925701	1
0	968	125.739520592368	0
0	970	127.310214526309	1
0	972	127.409381192976	0
0	974	127.490000458911	1
0	976	127.546774831456	2
0	979	127.645941498123	0
0	981	127.925426031035	1
0	983	128.016681275567	2
0	986	128.115847942234	0
0	988	131.009617521853	1
0	990	131.035374914019	2
0	993	131.134541580686	0
0	995	132.547524790977	1
0	997	132.646691457644	0
0	999	133.267720873371	1
0	1001	133.366887540038	0
0	1003	133.644832772342	1
0	1005	133.715714391949	2
0	1008	133.814881058616	0
0	1010	134.116247270442	1
0	1012	134.215413937109	0
0	1014	134.397501187077	1
0	1016	134.496667853744	0
0	1018	135.122773460886	1
0	1020	135.221940127553	0
0	1022	135.608262085122	1
0	1024	135.707428751789	0
0	1026	136.378701543914	1
0	1028	136.477868210581	0
0	1030	136.860396764812	1
0	1032	136.959563431479	0
0	1034	137.320177392977	1
0	1036	137.419344059644	0
0	1038	138.143043100127	1
0	1040	138.242209766794	0
0	1042	138.332057239942	1
0	1044	138.431223906609	0
0	1046	138.66267382922	1
0	1048	138.761840495887	0
0	1050	138.86057188832	1
0	1052	138.959738554987	0
0	1054	140.353306096707	1
0	1056	140.399029926362	2
0	1059	140.498196593029	0
0	1061	140.594702030012	1
0	1063	140.693868696679	0
0	1065	140.963012008227	1
0	1067	141.062178674894	0
0	1069	141.089235016981	1
0	1071	141.188401683648	0
0	1073	141.411396372294	1
0	1075	141.510563038961	0
0	1077	141.98112707764	1
0	1079	142.080293744307	0
0	1081	142.552954840949	1
0	1083	142.652121507616	0
0	1085	145.1674525116	1
0	1087	145.251391333636	2
0	1090	145.350558000303	0
0	1092	146.788903355834	1
0	1094	146.888070022501	0
0	1096	147.427577832324	1
0	1098	147.526744498991	0
0	1100	147.931995182783	1
0	1102	148.03116184945	0
0	1104	148.479429226043	1
0	1106	148.57859589271	0
0	1108	148.623875390073	1
0	1110	148.72304205674	0
0	1112	148.724703187648	1
0	1114	148.823869854315	0
0	1116	149.236598741507	1
0	1118	149.335765408174	0
0	1120	149.828094531865	1
0	1122	149.904872959067	2
0	1125	150.004039625734	0
0	1127	150.466543848048	1
0	1129	150.46822414822	2
0	1131	150.526098896429	2
0	1135	150.625265563096	0
0	1137	150.859779148928	1
0	1139	150.958945815595	0
0	1141	151.53843550444	1
0	1143	151.637602171107	0
0	1145	151.917143354632	1
0	1147	152.016310021299	0
0	1149	152.512992535087	1
0	1151	152.612159201754	0
0	1153	153.3114644938	1
0	1155	153.410631160467	0
0	1157	154.850557781629	1
0	1159	154.949724448296	0
0	1161	155.056711794226	1
0	1163	155.155878460893	0
0	1165	156.557400632881	1
0	1167	156.656567299548	0
0	1169	157.11120216983	1
0	1171	157.210368836497	0
0	1173	158.001362975859	1
0	1175	158.100529642526	0
0	1177	158.577088547203	1
0	1179	158.662969510587	2
0	1182	158.762136177254	0
0	1184	161.439968259357	1
0	1186	161.539134926024	0
0	1188	162.072213491516	1
0	1190	162.171380158183	0
0	1192	162.833990140315	1
0	1194	162.933156806982	0
0	1196	163.189291633551	1
0	1198	163.288458300218	0
0	1200	163.715149727755	1
0	1202	163.814316394422	0
0	1204	164.265454859487	1
0	1206	164.31452934053	2
0	1209	164.413696007197	0
0	1211	164.528708320099	1
0	1213	164.543075247498	2
0	1216	164.642241914165	0
0	1218	164.725346837346	1
0	1220	164.824513504013	0
0	1222	165.648212252622	1
0	1224	165.747378919289	0
0	1226	166.245316930126	1
0	1228	166.344483596793	0
0	1230	166.41208074064	1
0	1232	166.511247407307	0
0	1234	167.596934806944	1
0	1236	167.627152877969	2
0	1239	167.726319544636	0
0	1241	169.429299722715	1
0	1243	169.528466389382	0
0	1245	169.717144693507	1
0	1247	169.816311360174	0
0	1249	169.917030822583	1
0	1251	169.928714234234	2
0	1254	170.027880900901	0
0	1256	170.570236758294	1
0	1258	170.669403424961	0
0	1260	171.012449962908	1
0	1262	171.111616629575	0
0	1264	171.299745799192	1
0	1266	171.398912465859	0
0	1268	171.605641561343	1
0	1270	171.70480822801	0
0	1272	171.867474980306	1
0	1274	171.887519989792	2
0	1277	171.986686656459	0
0	1279	172.117772861708	1
0	1281	172.216939528375	0
0	1283	173.070926753568	1
0	1285	173.170093420235	0
0	1287	173.249659058082	1
0	1289	173.348825724749	0
0	1291	173.751652513478	1
0	1293	173.850819180145	0
0	1295	174.067819591306	1
0	1297	174.166986257973	0
0	1299	175.675594872237	1
0	1301	175.774761538904	0
0	1303	176.075529142099	1
0	1305	176.174695808766	0
0	1307	176.235944191646	1
0	1309	176.335110858313	0
0	1311	177.11205013591	1
0	1313	177.211216802577	0
0	1315	177.800055976297	1
0	1317	177.899222642964	0
0	1319	178.498972339315	1
0	1321	178.598139005982	0
0	1323	178.707941093232	1
0	1325	178.807107759899	0
0	1327	179.593387103321	1
0	1329	179.692553769988	0
0	1331	180.223547367881	1
0	1333	180.322714034548	0
0	1335	180.384395586766	1
0	1337	180.483562253433	0
0	1339	180.60742078631	1
0	1341	180.706587452977	0
0	1343	181.06756470369	1
0	1345	181.166731370357	0
0	1347	181.641039368383	1
0	1349	181.74020603505	0
0	1351	181.942548948206	1
0	1353	182.041715614873	0
0	1355	183.212963171007	1
0	1357	183.312129837674	0
0	1359	183.473880847747	1
0	1361	183.573047514414	0
0	1363	183.750280675185	1
0	1365	183.849447341852	0
0	1367	184.597167156456	1
0	1369	184.696333823123	0
0	1371	186.323614832108	1
0	1373	186.422781498775	0
0	1375	187.317427291373	1
0	1377	187.41659395804	0
0	1379	187.508782477082	1
0	1381	187.607949143749	0
0	1383	187.92680857071	1
0	1385	188.025975237377	0
0	1387	188.616947340877	1
0	1389	188.626710768727	2
0	1392	188.725877435394	0
0	1394	189.193294946673	1
0	1396	189.29246161334	0
0	1398	189.595902827074	1
0	1400	189.695069493741	0
0	1402	190.004860621902	1
0	1404	190.054223711797	2
0	1407	190.153390378464	0
0	1409	190.634330497435	1
0	1411	190.733497164102	0
0	1413	191.05571547334	1
0	1415	191.154882140007	0
0	1417	192.141828840441	1
0	1419	192.240995507108	0
0	1421	192.465577061008	1
0	1423	192.466552094333	2
0	1426	192.565718761	0
0	1428	192.706380678819	1
0	1430	192.805547345486	0
0	1432	192.834041803819	1
0	1434	192.933208470486	0
0	1436	193.942538290757	1
0	1438	194.041704957424	0
0	1440	194.103200300048	1
0	1442	194.202366966715	0
0	1444	194.244793180032	1
0	1446	194.343959846699	0
0	1448	194.509941795178	1
0	1450	194.609108461845	0
0	1452	196.113413692501	1
0	1454	196.212580359168	0
0	1456	196.842125049527	1
0	1458	196.941291716194	0
0	1460	197.309754184362	1
0	1462	197.374228511251	2
0	1465	197.473395177918	0
0	1467	197.788638009751	1
0	1469	197.887804676418	0
0	1471	198.066461721704	1
0	1473	198.165628388371	0
0	1475	198.921805307213	1
0	1477	199.02097197388	0
0	1479	199.549112570744	1
0	1481	199.589552350891	2
0	1484	199.688719017558	0
0	1486	200.358520188235	1
0	1488	200.457686854902	0
0	1490	200.940474986331	1
0	1492	201.039641652998	0
0	1494	202.172670914303	1
0	1496	202.27183758097	0
0	1498	202.400487052818	1
0	1500	202.499653719485	0
0	1502	202.590635128894	1
0	1504	202.689801795561	0
0	1506	203.422770261786	1
0	1508	203.444840819679	2
0	1511	203.544007486346	0
0	1513	203.829582949464	1
0	1515	203.928749616131	0
0	1517	203.987045446121	1
0	1519	204.0758210846	2
0	1521	204.077504036019	2
0	1525	204.176670702686	0
0	1527	205.196203152157	1
0	1529	205.295369818824	0
0	1531	205.589906756171	1
0	1533	205.60420053568	2
0	1536	205.703367202347	0
0	1538	206.080579215639	1
0	1540	206.179745882306	0
0	1542	206.253501398256	1
0	1544	206.260469789556	2
0	1547	206.359636456223	0
0	1549	206.615175574606	1
0	1551	206.654555070523	2
0	1554	206.75372173719	0
0	1556	207.496769411005	1
0	1558	207.595936077672	0
0	1560	207.896458450115	1
0	1562	207.995625116782	0
0	1564	208.117184933303	1
0	1566	208.21635159997	0
0	1568	208.558551355946	1
0	1570	208.657718022613	0
0	1572	209.682646861915	1
0	1574	209.728263557478	2
0	1577	209.827430224145	0
0	1579	210.108376555992	1
0	1581	210.207543222659	0
0	1583	210.822573257472	1
0	1585	210.921739924139	0
0	1587	210.931590984706	1
0	1589	211.030757651373	0
0	1591	211.792355750653	1
0	1593	211.89152241732	0
0	1595	212.421382768334	1
0	1597	212.520549435001	0
0	1599	216.037792784859	1
0	1601	216.136959451526	0
0	1603	216.906701358264	1
0	1605	217.005868024931	0
0	1607	217.699272324659	1
0	1609	217.798438991326	0
0	1611	218.335928066579	1
0	1613	218.435094733246	0
0	1615	219.001980818654	1
0	1617	219.101147485321	0
0	1619	219.594428598902	1
0	1621	219.693595265569	0
0	1623	220.559629114343	1
0	1625	220.65879578101	0
0	1627	221.621543636094	1
0	1629	221.720710302761	0
0	1631	221.721747910171	1
0	1633	221.820914576838	0
0	1635	222.414124628673	1
0	1637	222.51329129534	0
0	1639	222.712048225613	1
0	1641	222.81121489228	0
0	1643	223.03283462084	1
0	1645	223.122499270732	2
0	1648	223.221665937399	0
0	1650	224.478553569929	1
0	1652	224.577720236596	0
0	1654	225.086088435887	1
0	1656	225.185255102554	0
0	1658	225.385878025511	1
0	1660	225.485044692178	0
0	1662	226.806812364026	1
0	1664	226.905979030693	0
0	1666	227.123772022051	1
0	1668	227.222938688718	0
0	1670	227.8779787214	1
0	1672	227.905593618466	2
0	1674	227.911335722656	2
0	1678	228.010502389323	0
0	1680	228.836356570205	1
0	1682	228.882379592344	2
0	1685	228.981546259011	0
0	1687	229.304595708089	1
0	1689	229.323645404822	2
0	1692	229.422812071489	0
0	1694	229.603137735857	1
0	1696	229.702304402524	0
0	1698	230.513743823241	1
0	1700	230.612910489908	0
0	1702	230.67450429977	1
0	1704	230.735194901347	2
0	1707	230.834361568014	0
0	1709	230.981591992172	1
0	1711	230.992900280548	2
0	1713	231.072765850871	2
0	1717	231.171932517538	0
0	1719	231.742399766002	1
0	1721	231.841566432669	0
0	1723	232.105831179748	1
0	1725	232.121438127197	2
0	1728	232.220604793864	0
0	1730	232.98620809696	1
0	1732	233.085374763627	0
0	1734	233.186214627223	1
0	1736	233.28538129389	0
0	1738	233.637028502011	1
0	1740	233.736195168678	0
0	1742	233.757914052918	1
0	1744	233.857080719585	0
0	1746	234.187967870731	1
0	1748	234.287134537398	0
0	1750	234.393076174607	1
0	1752	234.448865612911	2
0	1755	234.548032279578	0
0	1757	234.718779555309	1
0	1759	234.817946221976	0
0	1761	235.399200075772	1
0	1763	235.498366742439	0
0	1765	235.575450224535	1
0	1767	235.674616891202	0
0	1769	235.941599671776	1
0	1771	236.040766338443	0
0	1773	236.394348011822	1
0	1775	236.493514678489	0
0	1777	236.592716725548	1
0	1779	236.691883392215	0
0	1781	238.140223014148	1
0	1783	238.239389680815	0
0	1785	238.424509071338	1
0	1787	238.523675738005	0
0	1789	239.438467706342	1
0	1791	239.537634373009	0
0	1793	240.012895539158	1
0	1795	240.112062205825	0
0	1797	240.203536838645	1
0	1799	240.302703505312	0
0	1801	241.109838161135	1
0	1803	241.209004827802	0
0	1805	241.297450844597	1
0	1807	241.340954644078	2
0	1810	241.440121310745	0
0	1812	241.753961832988	1
0	1814	241.853128499655	0
0	1816	242.020639098453	1
0	1818	242.11980576512	0
0	1820	243.596967667161	1
0	1822	243.696134333828	0
0	1824	244.500726496862	1
0	1826	244.54354605423	2
0	1829	244.642712720897	0
0	1831	245.225423727482	1
0	1833	245.305014313778	2
0	1836	245.404180980445	0
0	1838	245.51788628651	1
0	1840	245.617052953177	0
0	1842	247.211019996533	1
0	1844	247.3101866632	0
0	1846	247.380848217128	1
0	1848	247.480014883795	0
0	1850	247.672394780127	1
0	1852	247.771561446794	0
0	1854	247.954312657173	1
0	1856	248.05347932384	0
0	1858	248.923377945517	1
0	1860	249.022544612184	0
0	1862	249.507532852471	1
0	1864	249.606699519138	0
0	1866	249.608109964956	1
0	1868	249.707276631623	0
0	1870	249.741158130203	1
0	1872	249.84032479687	0
0	1874	249.96631454208	1
0	1876	250.065481208747	0
0	1878	250.125888206196	1
0	1880	250.225054872863	0
0	1882	251.139323050444	1
0	1884	251.238489717111	0
0	1886	252.41786744438	1
0	1888	252.517034111047	0
0	1890	252.676227231434	1
0	1892	252.775393898101	0
0	1894	253.000838940246	1
0	1896	253.100005606913	0
0	1898	253.207808652409	1
0	1900	253.207899782273	2
0	1903	253.30706644894	0
0	1905	253.40394723423	1
0	1907	253.503113900897	0
0	1909	253.59238379215	1
0	1911	253.691550458817	0
0	1913	254.316106465064	1
0	1915	254.415273131731	0
0	1917	256.304741850902	1
0	1919	256.403908517569	0
0	1921	256.638703932663	1
0	1923	256.73787059933	0
0	1925	256.92276634337	1
0	1927	257.021933010037	0
0	1929	257.535755002364	1
0	1931	257.634921669031	0
0	1933	257.691453542344	1
0	1935	257.790620209011	0
0	1937	257.84490988085	1
0	1939	257.944076547517	0
0	1941	258.131752068913	1
0	1943	258.23091873558	0
0	1945	258.3013924026	1
0	1947	258.400559069267	0
0	1949	259.326049705765	1
0	1951	259.425216372432	0
0	1953	259.77912422656	1
0	1955	259.878290893227	0
0	1957	259.88723077863	1
0	1959	259.986397445297	0
0	1961	260.695064197614	1
0	1963	260.698874687009	2
0	1966	260.798041353676	0
0	1968	260.813631642852	1
0	1970	260.912798309519	0
0	1972	261.254391819196	1
0	1974	261.353558485863	0
0	1976	261.94461020934	1
0	1978	262.043776876007	0
0	1980	262.181532477877	1
0	1982	262.280699144544	0
0	1984	262.480337551867	1
0	1986	262.579504218534	0
0	1988	262.759222302776	1
0	1990	262.858388969443	0
0	1992	263.272743381526	1
0	1994	263.371910048193	0
0	1996	263.735812103649	1
0	1998	263.834978770316	0
0	2000	264.118354838143	1
0	2002	264.21752150481	0
0	2004	264.543304433407	1
0	2006	264.642471100074	0
0	2008	265.631502907304	1
0	2010	265.730669573971	0
0	2012	266.468361614033	1
0	2014	266.5675282807	0
0	2016	266.590430820951	1
0	2018	266.689597487618	0
0	2020	267.109627013756	1
0	2022	267.164605327576	2
0	2025	267.263771994243	0
0	2027	267.554832674965	1
0	2029	267.653999341632	0
0	2031	269.874852881962	1
0	2033	269.974019548629	0
0	2035	270.065506730263	1
0	2037	270.16467339693	0
0	2039	270.43199136148	1
0	2041	270.531158028147	0
0	2043	270.699249440053	1
0	2045	270.79841610672	0
0	2047	271.219081091376	1
0	2049	271.318247758043	0
0	2051	272.477674910884	1
0	2053	272.576841577551	0
0	2055	273.490011287595	1
0	2057	273.589177954262	0
0	2059	274.011465266701	1
0	2061	274.031971261745	2
0	2064	274.131137928412	0
0	2066	274.468771182258	1
0	2068	274.567937848925	0
0	2070	275.111451755907	1
0	2072	275.210618422574	0
0	2074	275.371277924045	1
0	2076	275.470444590712	0
0	2078	275.890907066401	1
0	2080	275.990073733068	0
0	2082	276.186935145556	1
0	2084	276.286101812223	0
0	2086	276.393854250946	1
0	2088	276.493020917613	0
0	2090	277.220635814887	1
0	2092	277.319802481554	0
0	2094	277.634778346628	1
0	2096	277.733945013295	0
0	2098	277.977279145584	1
0	2100	278.076445812251	0
0	2102	279.832093245204	1
0	2104	279.931259911871	0
0	2106	280.039430367011	1
0	2108	280.138597033678	0
0	2110	281.913032147098	1
0	2112	282.012198813765	0
0	2114	282.534555008806	1
0	2116	282.633721675473	0
0	2118	282.785141289232	1
0	2120	282.884307955899	0
0	2122	283.491418204312	1
0	2124	283.590584870979	0
0	2126	284.543908775148	1
0	2128	284.557809328357	2
0	2131	284.656975995024	0
0	2133	285.79015424052	1
0	2135	285.889320907187	0
0	2137	286.490884662899	1
0	2139	286.590051329566	0
0	2141	287.027441009186	1
0	2143	287.126607675853	0
0	2145	287.379521596191	1
0	2147	287.478688262858	0
0	2149	287.878417473771	1
0	2151	287.977584140438	0
0	2153	289.062839633194	1
0	2155	289.162006299861	0
0	2157	289.532628832092	1
0	2159	289.631795498759	0
0	2161	289.977136506464	1
0	2163	289.983368918619	2
0	2166	290.082535585286	0
0	2168	290.137121699335	1
0	2170	290.236288366002	0
0	2172	290.70670156556	1
0	2174	290.805868232227	0
0	2176	291.719801127046	1
0	2178	291.818967793713	0
0	2180	292.116258901988	1
0	2182	292.215425568655	0
0	2184	292.323248002095	1
0	2186	292.422414668762	0
0	2188	293.097442445999	1
0	2190	293.196609112666	0
0	2192	293.31666320153	1
0	2194	293.415829868197	0
0	2196	293.472015232457	1
0	2198	293.571181899124	0
0	2200	293.651008812215	1
0	2202	293.750175478882	0
0	2204	294.038673830039	1
0	2206	294.137840496706	0
0	2208	294.786934196445	1
0	2210	294.886100863112	0
0	2212	295.394429351224	1
0	2214	295.493596017891	0
0	2216	295.524160783708	1
0	2218	295.623327450375	0
0	2220	296.989638128791	1
0	2222	297.088804795458	0
0	2224	297.595310530201	1
0	2226	297.680306980681	2
0	2229	297.779473647348	0
0	2231	298.755688088623	1
0	2233	298.854343225263	2
0	2236	298.95350989193	0
0	2238	299.119567074628	1
0	2240	299.183211713714	2
0	2243	299.282378380381	0
0	2245	299.289162337134	1
0	2247	299.289282733809	2
0	2250	299.388449400476	0
0	2252	299.963107659667	1
0	2254	300.024553071495	2
0	2257	300.123719738162	0
0	2259	300.642844825644	1
0	2261	300.742011492311	0