version 3
run PureAlohaExperiment-20-20250302-16:22:02-14228
attr configname PureAlohaExperiment
attr datetime 20250302-16:22:02
attr datetimef 20250302-162202
attr experiment PureAlohaExperiment
attr inifile omnetpp.ini
attr iterationvars "$numHosts=20, $iaMean=9"
attr iterationvarsd numHosts=20/iaMean=9
attr iterationvarsf numHosts=20,iaMean=9-
attr measurement "$numHosts=20, $iaMean=9"
attr network Aloha
attr processid 14228
attr repetition 0
attr replication #0
attr resultdir results
attr runnumber 20
attr seedset 20
itervar iaMean 9
itervar numHosts 20
config description "Channel utilization in the function of packet generation frequency"
config repeat 1
config sim-time-limit 90min
config Aloha.numHosts 20
config Aloha.host[*].iaTime exponential(9s)
config network Aloha
config Aloha.numHosts 20
config Aloha.slotTime 0s
config Aloha.txRate 9.6kbps
config Aloha.host[*].pkLenBits 952b
config **.x "uniform(0m, 1000m)"
config **.y "uniform(0m, 1000m)"
config **.animationHoldTimeOnCollision 0s
config **.idleAnimationSpeed 1
config **.transmissionEdgeAnimationSpeed 1e-6
config **.midTransmissionAnimationSpeed 1e-1

vector 0 Aloha.server serverChannelState:vector ETV
attr enum IDLE=0,TRANSMISSION=1,COLLISION=2
attr recordingmode vector
attr source channelState
attr title "Channel state"
vector 1 Aloha.server channelUtilization:vector ETV
attr interpolationmode linear
attr recordingmode vector
attr source timeavg(receive)
attr title "channel utilization"
vector 2 Aloha.host[0] radioState:vector ETV
attr enum IDLE=0,TRANSMIT=1
attr recordingmode vector
attr source state
attr title "Radio state"
vector 3 Aloha.host[1] radioState:vector ETV
attr enum IDLE=0,TRANSMIT=1
attr recordingmode vector
attr source state
attr title "Radio state"
vector 4 Aloha.host[2] radioState:vector ETV
attr enum IDLE=0,TRANSMIT=1
attr recordingmode vector
attr source state
attr title "Radio state"
vector 5 Aloha.host[3] radioState:vector ETV
attr enum IDLE=0,TRANSMIT=1
attr recordingmode vector
attr source state
attr title "Radio state"
vector 6 Aloha.host[4] radioState:vector ETV
attr enum IDLE=0,TRANSMIT=1
attr recordingmode vector
attr source state
attr title "Radio state"
vector 7 Aloha.host[5] radioState:vector ETV
attr enum IDLE=0,TRANSMIT=1
attr recordingmode vector
attr source state
attr title "Radio state"
vector 8 Aloha.host[6] radioState:vector ETV
attr enum IDLE=0,TRANSMIT=1
attr recordingmode vector
attr source state
attr title "Radio state"
vector 9 Aloha.host[7] radioState:vector ETV
attr enum IDLE=0,TRANSMIT=1
attr recordingmode vector
attr source state
attr title "Radio state"
vector 10 Aloha.host[8] radioState:vector ETV
attr enum IDLE=0,TRANSMIT=1
attr recordingmode vector
attr source state
attr title "Radio state"
vector 11 Aloha.host[9] radioState:vector ETV
attr enum IDLE=0,TRANSMIT=1
attr recordingmode vector
attr source state
attr title "Radio state"
vector 12 Aloha.host[10] radioState:vector ETV
attr enum IDLE=0,TRANSMIT=1
attr recordingmode vector
attr source state
attr title "Radio state"
vector 13 Aloha.host[11] radioState:vector ETV
attr enum IDLE=0,TRANSMIT=1
attr recordingmode vector
attr source state
attr title "Radio state"
vector 14 Aloha.host[12] radioState:vector ETV
attr enum IDLE=0,TRANSMIT=1
attr recordingmode vector
attr source state
attr title "Radio state"
vector 15 Aloha.host[13] radioState:vector ETV
attr enum IDLE=0,TRANSMIT=1
attr recordingmode vector
attr source state
attr title "Radio state"
vector 16 Aloha.host[14] radioState:vector ETV
attr enum IDLE=0,TRANSMIT=1
attr recordingmode vector
attr source state
attr title "Radio state"
vector 17 Aloha.host[15] radioState:vector ETV
attr enum IDLE=0,TRANSMIT=1
attr recordingmode vector
attr source state
attr title "Radio state"
vector 18 Aloha.host[16] radioState:vector ETV
attr enum IDLE=0,TRANSMIT=1
attr recordingmode vector
attr source state
attr title "Radio state"
vector 19 Aloha.host[17] radioState:vector ETV
attr enum IDLE=0,TRANSMIT=1
attr recordingmode vector
attr source state
attr title "Radio state"
vector 20 Aloha.host[18] radioState:vector ETV
attr enum IDLE=0,TRANSMIT=1
attr recordingmode vector
attr source state
attr title "Radio state"
vector 21 Aloha.host[19] radioState:vector ETV
attr enum IDLE=0,TRANSMIT=1
attr recordingmode vector
attr source state
attr title "Radio state"
0	0	0	0
0	2	1.772684278195	1
0	4	1.840252599624	2
0	7	1.939419266291	0
0	9	2.624900239768	1
0	11	2.724066906435	0
0	13	3.067998402338	1
0	15	3.167165069005	0
0	17	3.463819229352	1
0	19	3.562985896019	0
0	21	4.190268969096	1
0	23	4.289435635763	0
0	25	5.337157856913	1
0	27	5.43632452358	0
0	29	5.437066822073	1
0	31	5.53623348874	0
0	33	5.541622630044	1
0	35	5.563017090522	2
0	38	5.654696783862	2
0	41	5.753863450529	0
0	43	6.102219019432	1
0	45	6.201323292232	2
0	48	6.300489958899	0
0	50	7.040807872446	1
0	52	7.139974539113	0
0	54	7.4233963371	1
0	56	7.522563003767	0
0	58	7.720887885443	1
0	60	7.82005455211	0
0	62	8.978802887642	1
0	64	9.077969554309	0
0	66	9.34750772969	1
0	68	9.446674396357	0
0	70	10.238363782276	1
0	72	10.276751811934	2
0	75	10.375918478601	0
0	77	10.901626636447	1
0	79	11.000793303114	0
0	81	11.340482010133	1
0	83	11.4396486768	0
0	85	11.491046649262	1
0	87	11.543176768973	2
0	90	11.64234343564	0
0	92	11.892218506607	1
0	94	11.991385173274	0
0	96	12.376091753162	1
0	98	12.424217570115	2
0	101	12.523384236782	0
0	103	12.655432987238	1
0	105	12.692454880986	2
0	107	12.732421231508	2
0	111	12.831587898175	0
0	113	13.236950178041	1
0	115	13.336116844708	0
0	117	14.922764751537	1
0	119	15.021931418204	0
0	121	15.042395305966	1
0	123	15.141561972633	0
0	125	15.208730265774	1
0	127	15.307896932441	0
0	129	16.465036447176	1
0	131	16.511794623934	2
0	134	16.610961290601	0
0	136	16.793469065379	1
0	138	16.892635732046	0
0	140	17.910220524589	1
0	142	18.009387191256	0
0	144	18.17222649321	1
0	146	18.271393159877	0
0	148	18.337605925072	1
0	150	18.423238845917	2
0	153	18.522405512584	0
0	155	18.657327335067	1
0	157	18.720135448365	2
0	160	18.819302115032	0
0	162	18.896391223749	1
0	164	18.899297567645	2
0	167	18.998464234312	0
0	169	19.209586587475	1
0	171	19.308753254142	0
0	173	19.330811710761	1
0	175	19.420383977921	2
0	178	19.519550644588	0
0	180	20.500907771053	1
0	182	20.60007443772	0
0	184	20.647279228677	1
0	186	20.746445895344	0
0	188	21.481323057589	1
0	190	21.580489724256	0
0	192	21.73121476282	1
0	194	21.830381429487	0
0	196	22.479142633958	1
0	198	22.578309300625	0
0	200	22.617906371891	1
0	202	22.623063457479	2
0	205	22.722230124146	0
0	207	22.799894379747	1
0	209	22.899061046414	0
0	211	23.250430562361	1
0	213	23.34628716769	2
0	216	23.445453834357	0
0	218	23.896930303219	1
0	220	23.996096969886	0
0	222	24.145087922562	1
0	224	24.244254589229	0
0	226	24.473329221178	1
0	228	24.572495887845	0
0	230	24.912595966798	1
0	232	25.011762633465	0
0	234	25.071070793152	1
0	236	25.170237459819	0
0	238	26.921903078472	1
0	240	27.021069745139	0
0	242	27.086325653732	1
0	244	27.185492320399	0
0	246	27.71266510468	1
0	248	27.811831771347	0
0	250	28.67480076218	1
0	252	28.773967428847	0
0	254	29.835526858806	1
0	256	29.934693525473	0
0	258	30.199897634647	1
0	260	30.257091226292	2
0	263	30.356257892959	0
0	265	31.409400111667	1
0	267	31.508566778334	0
0	269	31.938868775849	1
0	271	32.038035442516	0
0	273	32.293382257549	1
0	275	32.392548924216	0
0	277	32.392934491305	1
0	279	32.491965828059	2
0	282	32.591132494726	0
0	284	33.308997131297	1
0	286	33.408163797964	0
0	288	33.610951991264	1
0	290	33.663878310459	2
0	293	33.763044977126	0
0	295	34.501376461823	1
0	297	34.60054312849	0
0	299	34.855606636482	1
0	301	34.954773303149	0
0	303	35.498979446046	1
0	305	35.598146112713	0
0	307	35.808066825209	1
0	309	35.834902727872	2
0	311	35.903952780053	2
0	315	36.00311944672	0
0	317	36.252829834286	1
0	319	36.351996500953	0
0	321	36.445192022723	1
0	323	36.54435868939	0
0	325	36.821958796289	1
0	327	36.921125462956	0
0	329	38.362573716264	1
0	331	38.461740382931	0
0	333	38.979257514877	1
0	335	39.078424181544	0
0	337	39.164797319226	1
0	339	39.263963985893	0
0	341	39.421816627687	1
0	343	39.520983294354	0
0	345	39.923452764263	1
0	347	40.02261943093	0
0	349	40.725793817274	1
0	351	40.824960483941	0
0	353	41.082986624929	1
0	355	41.182153291596	0
0	357	41.220631281744	1
0	359	41.319797948411	0
0	361	41.913669993974	1
0	363	41.991379157196	2
0	366	42.090545823863	0
0	368	42.311909750013	1
0	370	42.41107641668	0
0	372	43.580043504914	1
0	374	43.679210171581	0
0	376	44.123410229005	1
0	378	44.13114491531	2
0	381	44.230311581977	0
0	383	45.165911530722	1
0	385	45.265078197389	0
0	387	46.265348396413	1
0	389	46.36451506308	0
0	391	47.341587151001	1
0	393	47.440753817668	0
0	395	47.647555978176	1
0	397	47.746722644843	0
0	399	47.880399763346	1
0	401	47.979566430013	0
0	403	49.132372287568	1
0	405	49.231538954235	0
0	407	49.376487519274	1
0	409	49.475654185941	0
0	411	49.565232889439	1
0	413	49.652171652748	2
0	416	49.751338319415	0
0	418	50.00767937083	1
0	420	50.106846037497	0
0	422	50.513640614488	1
0	424	50.516184937269	2
0	427	50.615351603936	0
0	429	51.292030974235	1
0	431	51.391197640902	0
0	433	51.569471877355	1
0	435	51.668638544022	0
0	437	51.6900434289	1
0	439	51.789210095567	0
0	441	52.693279170271	1
0	443	52.792445836938	0
0	445	52.866137921701	1
0	447	52.965304588368	0
0	449	53.199935386336	1
0	451	53.299102053003	0
0	453	53.317670299423	1
0	455	53.41683696609	0
0	457	53.622341848071	1
0	459	53.721508514738	0
0	461	53.912334564799	1
0	463	54.011501231466	0
0	465	54.044418307383	1
0	467	54.14358497405	0
0	469	54.46923948558	1
0	471	54.568406152247	0
0	473	54.613248597651	1
0	475	54.712415264318	0
0	477	54.93208809986	1
0	479	55.031254766527	0
0	481	55.328684799165	1
0	483	55.427851465832	0
0	485	55.877693505156	1
0	487	55.901370776427	2
0	490	56.000537443094	0
0	492	56.124044280247	1
0	494	56.142569130875	2
0	496	56.212445679362	2
0	500	56.311612346029	0
0	502	58.260593888997	1
0	504	58.359760555664	0
0	506	60.10835754892	1
0	508	60.207524215587	0
0	510	60.67927702228	1
0	512	60.778443688947	0
0	514	61.63193370696	1
0	516	61.731100373627	0
0	518	61.870705697538	1
0	520	61.95513719552	2
0	523	62.054303862187	0
0	525	62.514706715565	1
0	527	62.613873382232	0
0	529	63.18494467394	1
0	531	63.284111340607	0
0	533	65.392610347651	1
0	535	65.491777014318	0
0	537	65.976830345571	1
0	539	66.075997012238	0
0	541	66.193932900173	1
0	543	66.29309956684	0
0	545	66.295149371129	1
0	547	66.394316037796	0
0	549	66.914051165265	1
0	551	67.013217831932	0
0	553	67.22579998292	1
0	555	67.324966649587	0
0	557	67.37318332185	1
0	559	67.472349988517	0
0	561	68.809078102806	1
0	563	68.908244769473	0
0	565	69.618028038636	1
0	567	69.659366711408	2
0	570	69.758533378075	0
0	572	69.766777610623	1
0	574	69.86594427729	0
0	576	69.872896473974	1
0	578	69.972063140641	0
0	580	70.152768733504	1
0	582	70.230522682743	2
0	585	70.32968934941	0
0	587	71.996061122278	1
0	589	72.041999990773	2
0	592	72.14116665744	0
0	594	72.159630078661	1
0	596	72.254532235749	2
0	599	72.353698902416	0
0	601	72.555537591805	1
0	603	72.654704258472	0
0	605	72.838308152563	1
0	607	72.882630180302	2
0	610	72.981796846969	0
0	612	73.686628996681	1
0	614	73.785795663348	0
0	616	74.012121723264	1
0	618	74.079055710135	2
0	621	74.133861868267	2
0	624	74.233028534934	0
0	626	74.432868258503	1
0	628	74.53203492517	0
0	630	74.80340744362	1
0	632	74.875796734233	2
0	635	74.936642647977	2
0	638	75.035809314644	0
0	640	75.168914957224	1
0	642	75.268081623891	0
0	644	75.336026437055	1
0	646	75.376183024161	2
0	649	75.475349690828	0
0	651	76.316740277533	1
0	653	76.4159069442	0
0	655	76.866206434129	1
0	657	76.935037398033	2
0	660	77.0342040647	0
0	662	77.232136784994	1
0	664	77.331303451661	0
0	666	77.830127966704	1
0	668	77.862235897433	2
0	671	77.9614025641	0
0	673	78.324530251257	1
0	675	78.423696917924	0
0	677	79.484690479142	1
0	679	79.583857145809	0
0	681	80.165004415505	1
0	683	80.264171082172	0
0	685	80.350922759435	1
0	687	80.362388076813	2
0	690	80.46155474348	0
0	692	81.284098984461	1
0	694	81.383265651128	0
0	696	82.438545044411	1
0	698	82.537711711078	0
0	700	82.902795936326	1
0	702	83.001962602993	0
0	704	84.502194442936	1
0	706	84.601361109603	0
0	708	84.709196706211	1
0	710	84.808363372878	0
0	712	85.14896948806	1
0	714	85.248136154727	0
0	716	85.648005112844	1
0	718	85.690944893825	2
0	721	85.790111560492	0
0	723	86.47469141013	1
0	725	86.573858076797	0
0	727	86.688085076685	1
0	729	86.787251743352	0
0	731	86.986816649978	1
0	733	87.085983316645	0
0	735	88.115523963433	1
0	737	88.2146906301	0
0	739	89.226315477989	1
0	741	89.325482144656	0
0	743	89.653817360294	1
0	745	89.752338056351	2
0	748	89.851504723018	0
0	750	89.960429552994	1
0	752	90.059596219661	0
0	754	90.231303278403	1
0	756	90.33046994507	0
0	758	91.502787579626	1
0	760	91.541551528424	2
0	763	91.640718195091	0
0	765	92.169699475698	1
0	767	92.268866142365	0
0	769	92.656809158635	1
0	771	92.755975825302	0
0	773	93.503650994034	1
0	775	93.602817660701	0
0	777	94.095201326565	1
0	779	94.194367993232	0
0	781	94.755762352894	1
0	783	94.854929019561	0
0	785	94.988658944988	1
0	787	95.087825611655	0
0	789	95.667959772698	1
0	791	95.767126439365	0
0	793	97.270645235399	1
0	795	97.271952322886	2
0	798	97.371118989553	0
0	800	97.644807301241	1
0	802	97.743973967908	0
0	804	97.966615079296	1
0	806	98.065781745963	0
0	808	98.227352172253	1
0	810	98.32651883892	0
0	812	99.091302515964	1
0	814	99.190469182631	0
0	816	100.054525572467	1
0	818	100.153692239134	0
0	820	100.716874103527	1
0	822	100.816040770194	0
0	824	100.886290545251	1
0	826	100.965971473781	2
0	829	101.065138140448	0
0	831	101.141823215575	1
0	833	101.152913922774	2
0	836	101.252080589441	0
0	838	101.346811482176	1
0	840	101.445978148843	0
0	842	101.786626227264	1
0	844	101.885792893931	0
0	846	103.231129112273	1
0	848	103.274677406168	2
0	851	103.373844072835	0
0	853	103.721038516143	1
0	855	103.82020518281	0
0	857	104.212023673733	1
0	859	104.3111903404	0
0	861	104.495194108555	1
0	863	104.594360775222	0
0	865	107.027668887561	1
0	867	107.126835554228	0
0	869	107.173242241481	1
0	871	107.272408908148	0
0	873	107.529686592916	1
0	875	107.628853259583	0
0	877	108.076880879898	1
0	879	108.176047546565	0
0	881	108.632289262569	1
0	883	108.731455929236	0
0	885	109.487937246908	1
0	887	109.547037343609	2
0	890	109.646204010276	0
0	892	109.971600339236	1
0	894	110.070767005903	0
0	896	110.510080505216	1
0	898	110.609247171883	0
0	900	111.664249583791	1
0	902	111.763416250458	0
0	904	112.482437276642	1
0	906	112.581603943309	0
0	908	114.274017639553	1
0	910	114.37318430622	0
0	912	114.823115538636	1
0	914	114.922282205303	0
0	916	114.983215652605	1
0	918	115.082382319272	0
0	920	115.39040209962	1
0	922	115.448097640121	2
0	925	115.547264306788	0
0	927	115.973075564602	1
0	929	115.977603677013	2
0	932	116.07677034368	0
0	934	116.812789465056	1
0	936	116.911956131723	0
0	938	117.591343974876	1
0	940	117.690510641543	0
0	942	117.828134135345	1
0	944	117.833674253077	2
0	947	117.932840919744	0
0	949	118.571271882343	1
0	951	118.67043854901	0
0	953	119.593037687785	1
0	955	119.692204354452	0
0	957	119.817815865272	1
0	959	119.916982531939	0
0	961	120.288485464739	1
0	963	120.36195935657	2
0	966	120.461126023237	0
0	968	120.957301967101	1
0	970	121.023748462689	2
0	973	121.122915129356	0
0	975	121.338981047128	1
0	977	121.438147713795	0
0	979	121.654946174621	1
0	981	121.697981568227	2
0	984	121.797148234894	0
0	986	122.426651576326	1
0	988	122.525818242993	0
0	990	123.44028500794	1
0	992	123.5352797128	2
0	995	123.634446379467	0
0	997	124.118433600235	1
0	999	124.217600266902	0
0	1001	125.182377306481	1
0	1003	125.281543973148	0
0	1005	125.97885099059	1
0	1007	125.985063394229	2
0	1009	126.068010939307	2
0	1013	126.167177605974	0
0	1015	126.220944215898	1
0	1017	126.320110882565	0
0	1019	126.367628054252	1
0	1021	126.466794720919	0
0	1023	126.497761390628	1
0	1025	126.596928057295	0
0	1027	127.330986733836	1
0	1029	127.430153400503	0
0	1031	127.430461960595	1
0	1033	127.529628627262	0
0	1035	128.914283918911	1
0	1037	128.963755534728	2
0	1040	129.062922201395	0
0	1042	129.581783138558	1
0	1044	129.680949805225	0
0	1046	129.702365691413	1
0	1048	129.80153235808	0
0	1050	129.935403736547	1
0	1052	130.034570403214	0
0	1054	130.42777019845	1
0	1056	130.526936865117	0
0	1058	131.56522912537	1
0	1060	131.664395792037	0
0	1062	132.297014125793	1
0	1064	132.39618079246	0
0	1066	133.880912600301	1
0	1068	133.980079266968	0
0	1070	134.03919512628	1
0	1072	134.138361792947	0
0	1074	135.252204017739	1
0	1076	135.351370684406	0
0	1078	135.994333673761	1
0	1080	136.012485373832	2
0	1083	136.111652040499	0
0	1085	136.371258405737	1
0	1087	136.470425072404	0
0	1089	137.389856662448	1
0	1091	137.489023329115	0
0	1093	137.50004390615	1
0	1095	137.599210572817	0
0	1097	137.608761351828	1
0	1099	137.707928018495	0
0	1101	138.582251100809	1
0	1103	138.681417767476	0
0	1105	141.333109314126	1
0	1107	141.334829683346	2
0	1109	141.348463245993	2
0	1113	141.44762991266	0
0	1115	142.195561112578	1
0	1117	142.294727779245	0
0	1119	142.632769193406	1
0	1121	142.731935860073	0
0	1123	143.541012063754	1
0	1125	143.640178730421	0
0	1127	145.235280831272	1
0	1129	145.334447497939	0
0	1131	145.56693642642	1
0	1133	145.666103093087	0
0	1135	146.63258500952	1
0	1137	146.731751676187	0
0	1139	146.765693232594	1
0	1141	146.864859899261	0
0	1143	147.043294597491	1
0	1145	147.142461264158	0
0	1147	147.559088881839	1
0	1149	147.658255548506	0
0	1151	148.412192603529	1
0	1153	148.511359270196	0
0	1155	149.208353211321	1
0	1157	149.307519877988	0
0	1159	149.669582222676	1
0	1161	149.706258185981	2
0	1164	149.805424852648	0
0	1166	150.25100609016	1
0	1168	150.350172756827	0
0	1170	150.613674311787	1
0	1172	150.712840978454	0
0	1174	150.872419663916	1
0	1176	150.971586330583	0
0	1178	151.172480330663	1
0	1180	151.27164699733	0
0	1182	151.376754928662	1
0	1184	151.475921595329	0
0	1186	152.514915858158	1
0	1188	152.614082524825	0
0	1190	152.783199011046	1
0	1192	152.882365677713	0
0	1194	152.89145604496	1
0	1196	152.990622711627	0
0	1198	153.554847064521	1
0	1200	153.654013731188	0
0	1202	154.602049987077	1
0	1204	154.701216653744	0
0	1206	155.315340158298	1
0	1208	155.375977414265	2
0	1211	155.475144080932	0
0	1213	155.482711275289	1
0	1215	155.581877941956	0
0	1217	156.250710118311	1
0	1219	156.349876784978	0
0	1221	156.651387239986	1
0	1223	156.745103854627	2
0	1226	156.844270521294	0
0	1228	158.799337837253	1
0	1230	158.89850450392	0
0	1232	159.181867619325	1
0	1234	159.281034285992	0
0	1236	160.648321619599	1
0	1238	160.747488286266	0
0	1240	161.366561588065	1
0	1242	161.465728254732	0
0	1244	161.636904659092	1
0	1246	161.736071325759	0
0	1248	161.841992954739	1
0	1250	161.941159621406	0
0	1252	162.537361623386	1
0	1254	162.636528290053	0
0	1256	162.715435798153	1
0	1258	162.81460246482	0
0	1260	163.977391581044	1
0	1262	164.076558247711	0
0	1264	164.265000927743	1
0	1266	164.36416759441	0
0	1268	164.431457097817	1
0	1270	164.530623764484	0
0	1272	166.41598663708	1
0	1274	166.515153303747	0
0	1276	166.702097891595	1
0	1278	166.801264558262	0
0	1280	167.590181935829	1
0	1282	167.689348602496	0
0	1284	168.428746740438	1
0	1286	168.527913407105	0
0	1288	169.088475731784	1
0	1290	169.187642398451	0
0	1292	169.36951867993	1
0	1294	169.468685346597	0
0	1296	170.538968447205	1
0	1298	170.638135113872	0
0	1300	170.841543159575	1
0	1302	170.940709826242	0
0	1304	171.390701967673	1
0	1306	171.48986863434	0
0	1308	172.432631840155	1
0	1310	172.531798506822	0
0	1312	173.363210728511	1
0	1314	173.462377395178	0
0	1316	173.746864064561	1
0	1318	173.803847160398	2
0	1321	173.903013827065	0
0	1323	174.06326558425	1
0	1325	174.162432250917	0
0	1327	174.610480314601	1
0	1329	174.709646981268	0
0	1331	174.871335839211	1
0	1333	174.970502505878	0
0	1335	175.069133812468	1
0	1337	175.168300479135	0
0	1339	175.301110195283	1
0	1341	175.40027686195	0
0	1343	175.425883712378	1
0	1345	175.472481866355	2
0	1348	175.571648533022	0
0	1350	176.175030782059	1
0	1352	176.274197448726	0
0	1354	176.287900519508	1
0	1356	176.387067186175	0
0	1358	176.498482562182	1
0	1360	176.57345442107	2
0	1363	176.672621087737	0
0	1365	176.821527310266	1
0	1367	176.920693976933	0
0	1369	176.940400480616	1
0	1371	177.039567147283	0
0	1373	177.111208490013	1
0	1375	177.21037515668	0
0	1377	177.376103112241	1
0	1379	177.475269778908	0
0	1381	177.640712452156	1
0	1383	177.739879118823	0
0	1385	178.652909289863	1
0	1387	178.75207595653	0
0	1389	178.909167187477	1
0	1391	179.008333854144	0
0	1393	179.194457983524	1
0	1395	179.293624650191	0
0	1397	179.564832173918	1
0	1399	179.663998840585	0
0	1401	180.187277957018	1
0	1403	180.206672817927	2
0	1406	180.305839484594	0
0	1408	181.492631706431	1
0	1410	181.591798373098	0
0	1412	182.258438540754	1
0	1414	182.357605207421	0
0	1416	183.842496944268	1
0	1418	183.941663610935	0
0	1420	184.138190464351	1
0	1422	184.17857526206	2
0	1425	184.277741928727	0
0	1427	184.56460360255	1
0	1429	184.600725891367	2
0	1432	184.699892558034	0
0	1434	185.148459179437	1
0	1436	185.247625846104	0
0	1438	185.522420949533	1
0	1440	185.6215876162	0
0	1442	185.890621299061	1
0	1444	185.989787965728	0
0	1446	186.056529107183	1
0	1448	186.15569577385	0
0	1450	186.486432076949	1
0	1452	186.585598743616	0
0	1454	187.266524462453	1
0	1456	187.315888497954	2
0	1459	187.415055164621	0
0	1461	188.470818084839	1
0	1463	188.569984751506	0
0	1465	188.718858011237	1
0	1467	188.818024677904	0
0	1469	189.166633397403	1
0	1471	189.22367179574	2
0	1474	189.322838462407	0
0	1476	190.075436541957	1
0	1478	190.174603208624	0
0	1480	190.24109956007	1
0	1482	190.340266226737	0
0	1484	191.134591708957	1
0	1486	191.233758375624	0
0	1488	191.519648371037	1
0	1490	191.596926463188	2
0	1493	191.696093129855	0
0	1495	191.753823512898	1
0	1497	191.852990179565	0
0	1499	192.239212884356	1
0	1501	192.338379551023	0
0	1503	192.364356723993	1
0	1505	192.46352339066	0
0	1507	193.409610391404	1
0	1509	193.43956834863	2
0	1512	193.538735015297	0
0	1514	194.402233997384	1
0	1516	194.501400664051	0
0	1518	195.364178648388	1
0	1520	195.463345315055	0
0	1522	195.480601306614	1
0	1524	195.579767973281	0
0	1526	195.986822258173	1
0	1528	196.08598892484	0
0	1530	196.492361906965	1
0	1532	196.591528573632	0
0	1534	196.847302689901	1
0	1536	196.879884657966	2
0	1539	196.979051324633	0
0	1541	197.106181042376	1
0	1543	197.205347709043	0
0	1545	198.087586159295	1
0	1547	198.186752825962	0
0	1549	199.274939230629	1
0	1551	199.374105897296	0
0	1553	199.37661990584	1
0	1555	199.475786572507	0
0	1557	200.026210737416	1
0	1559	200.08765819171	2
0	1562	200.186824858377	0
0	1564	200.198762485477	1
0	1566	200.297929152144	0
0	1568	202.452105517052	1
0	1570	202.551272183719	0
0	1572	202.720218774724	1
0	1574	202.819385441391	0
0	1576	202.922654591962	1
0	1578	203.021821258629	0
0	1580	203.289584259614	1
0	1582	203.388750926281	0
0	1584	204.495951678078	1
0	1586	204.595118344745	0
0	1588	205.029923222581	1
0	1590	205.045133251337	2
0	1593	205.144299918004	0
0	1595	206.357894950402	1
0	1597	206.457061617069	0
0	1599	206.689160089221	1
0	1601	206.788326755888	0
0	1603	207.082199526723	1
0	1605	207.18136619339	0
0	1607	207.254485117723	1
0	1609	207.35365178439	0
0	1611	209.044452046297	1
0	1613	209.143618712964	0
0	1615	209.368542308665	1
0	1617	209.467708975332	0
0	1619	209.645730983389	1
0	1621	209.744897650056	0
0	1623	210.313017263633	1
0	1625	210.4121839303	0
0	1627	211.10175246343	1
0	1629	211.200919130097	0
0	1631	211.651524127761	1
0	1633	211.712906061235	2
0	1636	211.812072727902	0
0	1638	211.957100488468	1
0	1640	212.056267155135	0
0	1642	212.213678851969	1
0	1644	212.279561967292	2
0	1647	212.378728633959	0
0	1649	212.48098792801	1
0	1651	212.580154594677	0
0	1653	212.938360035196	1
0	1655	213.037526701863	0
0	1657	213.480738032811	1
0	1659	213.579904699478	0
0	1661	214.088686747187	1
0	1663	214.187853413854	0
0	1665	214.214311488248	1
0	1667	214.313478154915	0
0	1669	214.593194726469	1
0	1671	214.692361393136	0
0	1673	215.263541977474	1
0	1675	215.362708644141	0
0	1677	215.893107466045	1
0	1679	215.992274132712	0
0	1681	216.209299440962	1
0	1683	216.308466107629	0
0	1685	216.452310425728	1
0	1687	216.551477092395	0
0	1689	216.608970699664	1
0	1691	216.708137366331	0
0	1693	216.842849367213	1
0	1695	216.875250170284	2
0	1697	216.878505896756	2
0	1699	216.891501042711	2
0	1704	216.990667709378	0
0	1706	217.062673207791	1
0	1708	217.161839874458	0
0	1710	217.89710809116	1
0	1712	217.996274757827	0
0	1714	218.781801412302	1
0	1716	218.880968078969	0
0	1718	219.609833835636	1
0	1720	219.709000502303	0
0	1722	220.221586582733	1
0	1724	220.3207532494	0
0	1726	220.58947186465	1
0	1728	220.688638531317	0
0	1730	220.866877499575	1
0	1732	220.966044166242	0
0	1734	221.463566675186	1
0	1736	221.562733341853	0
0	1738	221.972052997451	1
0	1740	222.028048317718	2
0	1743	222.127214984385	0
0	1745	222.172201383523	1
0	1747	222.27136805019	0
0	1749	223.446217485115	1
0	1751	223.545384151782	0
0	1753	223.964672505268	1
0	1755	224.063839171935	0
0	1757	225.286722620624	1
0	1759	225.385889287291	0
0	1761	225.560908486595	1
0	1763	225.660075153262	0
0	1765	225.731423848478	1
0	1767	225.830590515145	0
0	1769	226.344626338687	1
0	1771	226.443793005354	0
0	1773	226.46021104057	1
0	1775	226.559377707237	0
0	1777	226.900185040943	1
0	1779	226.99935170761	0
0	1781	227.609226437762	1
0	1783	227.708393104429	0
0	1785	227.988058517919	1
0	1787	228.087225184586	0
0	1789	229.037714644561	1
0	1791	229.136881311228	0
0	1793	230.647652634929	1
0	1795	230.746819301596	0
0	1797	232.272862886127	1
0	1799	232.372029552794	0
0	1801	233.061510843962	1
0	1803	233.160677510629	0
0	1805	234.405811060243	1
0	1807	234.484072301861	2
0	1810	234.583238968528	0
0	1812	234.996936377613	1
0	1814	235.09610304428	0
0	1816	238.371145054706	1
0	1818	238.470311721373	0
0	1820	239.353958140242	1
0	1822	239.453124806909	0
0	1824	239.998582785421	1
0	1826	240.029778774876	2
0	1829	240.128945441543	0
0	1831	240.237606866007	1
0	1833	240.336773532674	0
0	1835	240.71811089942	1
0	1837	240.817277566087	0
0	1839	240.883367452397	1
0	1841	240.982534119064	0
0	1843	243.462464047299	1
0	1845	243.482106056675	2
0	1848	243.581272723342	0
0	1850	243.717912457842	1
0	1852	243.817079124509	0
0	1854	244.190572757815	1
0	1856	244.289739424482	0
0	1858	245.451766138529	1
0	1860	245.550932805196	0
0	1862	246.080241810377	1
0	1864	246.179408477044	0
0	1866	247.869418134172	1
0	1868	247.968584800839	0
0	1870	248.082821006588	1
0	1872	248.181987673255	0
0	1874	248.365156488288	1
0	1876	248.446617326285	2
0	1879	248.545783992952	0
0	1881	248.78768359895	1
0	1883	248.886850265617	0
0	1885	248.91538240237	1
0	1887	249.014549069037	0
0	1889	249.017007483363	1
0	1891	249.11617415003	0
0	1893	249.638388788935	1
0	1895	249.737555455602	0
0	1897	249.78851652482	1
0	1899	249.887683191487	0
0	1901	249.998877700179	1
0	1903	250.098044366846	0
0	1905	250.573118491966	1
0	1907	250.641355370162	2
0	1909	250.665894643328	2
0	1912	250.694085413368	2
0	1916	250.793252080035	0
0	1918	252.758372221357	1
0	1920	252.857538888024	0
0	1922	253.192164687383	1
0	1924	253.29133135405	0
0	1926	254.080701515991	1
0	1928	254.083212924201	2
0	1931	254.182379590868	0
0	1933	254.236175256411	1
0	1935	254.335341923078	0
0	1937	254.77984190626	1
0	1939	254.879008572927	0
0	1941	255.073295244064	1
0	1943	255.172461910731	0
0	1945	255.902168680777	1
0	1947	256.001335347444	0
0	1949	256.012782757853	1
0	1951	256.11194942452	0
0	1953	256.835400445991	1
0	1955	256.934567112658	0
0	1957	257.259872591156	1
0	1959	257.359039257823	0
0	1961	257.555077246479	1
0	1963	257.654243913146	0
0	1965	257.699711349482	1
0	1967	257.798878016149	0
0	1969	258.500898595425	1
0	1971	258.600065262092	0
0	1973	258.94968173132	1
0	1975	259.048848397987	0
0	1977	259.167949953751	1
0	1979	259.267116620418	0
0	1981	259.477357840033	1
0	1983	259.5765245067	0
0	1985	259.924426105087	1
0	1987	260.023592771754	0
0	1989	260.307011052658	1
0	1991	260.406177719325	0
0	1993	260.56141570968	1
0	1995	260.660582376347	0
0	1997	262.079081795068	1
0	1999	262.178248461735	0
0	2001	262.280634892732	1
0	2003	262.379801559399	0
0	2005	262.559977667611	1
0	2007	262.561761139931	2
0	2010	262.660927806598	0
0	2012	262.743982474535	1
0	2014	262.843149141202	0
0	2016	263.206742905117	1
0	2018	263.244545730047	2
0	2021	263.343712396714	0
0	2023	263.911141536521	1
0	2025	264.010308203188	0
0	2027	265.076982095542	1
0	2029	265.176148762209	0
0	2031	265.187762423132	1
0	2033	265.286929089799	0
0	2035	265.348893389208	1
0	2037	265.448060055875	0
0	2039	266.093271861696	1
0	2041	266.192438528363	0
0	2043	266.530779805994	1
0	2045	266.629946472661	0
0	2047	267.167048568037	1
0	2049	267.266215234704	0
0	2051	267.602901703852	1
0	2053	267.702068370519	0
0	2055	268.218532976933	1
0	2057	268.3176996436	0
0	2059	268.644947423506	1
0	2061	268.744114090173	0
0	2063	268.850788955948	1
0	2065	268.918021721441	2
0	2068	269.017188388108	0
0	2070	269.260972012788	1
0	2072	269.360138679455	0
0	2074	269.361510217694	1
0	2076	269.460676884361	0
0	2078	269.471513166167	1
0	2080	269.570679832834	0
0	2082	270.163306527968	1
0	2084	270.174305089828	2
0	2087	270.273471756495	0
0	2089	272.501410039513	1
0	2091	272.60057670618	0
0	2093	273.047277685199	1
0	2095	273.146444351866	0
0	2097	273.576003311206	1
0	2099	273.599275489815	2
0	2102	273.698442156482	0
0	2104	274.748240074361	1
0	2106	274.847406741028	0
0	2108	275.048140878081	1
0	2110	275.147307544748	0
0	2112	275.679449753912	1
0	2114	275.778616420579	0
0	2116	276.502795028083	1
0	2118	276.60196169475	0
0	2120	276.808860858699	1
0	2122	276.908027525366	0
0	2124	277.023905704343	1
0	2126	277.12307237101	0
0	2128	278.732480693796	1
0	2130	278.831647360463	0
0	2132	278.955733419912	1
0	2134	279.054900086579	0
0	2136	279.721611931343	1
0	2138	279.82077859801	0
0	2140	279.901270394119	1
0	2142	280.000437060786	0
0	2144	281.326051036131	1
0	2146	281.425217702798	0
0	2148	281.464888685202	1
0	2150	281.564055351869	0
0	2152	281.779060610752	1