version 3
run PureAlohaExperiment-19-20250302-16:22:02-14228
attr configname PureAlohaExperiment
attr datetime 20250302-16:22:02
attr datetimef 20250302-162202
attr experiment PureAlohaExperiment
attr inifile omnetpp.ini
attr iterationvars "$numHosts=20, $iaMean=7"
attr iterationvarsd numHosts=20/iaMean=7
attr iterationvarsf numHosts=20,iaMean=7-
attr measurement "$numHosts=20, $iaMean=7"
attr network Aloha
attr processid 14228
attr repetition 0
attr replication #0
attr resultdir results
attr runnumber 19
attr seedset 19
itervar iaMean 7
itervar numHosts 20
config description "Channel utilization in the function of packet generation frequency"
config repeat 1
config sim-time-limit 90min
config Aloha.numHosts 20
config Aloha.host[*].iaTime exponential(7s)
config network Aloha
config Aloha.numHosts 20
config Aloha.slotTime 0s
config Aloha.txRate 9.6kbps
config Aloha.host[*].pkLenBits 952b
config **.x "uniform(0m, 1000m)"
config **.y "uniform(0m, 1000m)"
config **.animationHoldTimeOnCollision 0s
config **.idleAnimationSpeed 1
config **.transmissionEdgeAnimationSpeed 1e-6
config **.midTransmissionAnimationSpeed 1e-1

vector 0 Aloha.server serverChannelState:vector ETV
attr enum IDLE=0,TRANSMISSION=1,COLLISION=2
attr recordingmode vector
attr source channelState
attr title "Channel state"
vector 1 Aloha.server channelUtilization:vector ETV
attr interpolationmode linear
attr recordingmode vector
attr source timeavg(receive)
attr title "channel utilization"
vector 2 Aloha.host[0] radioState:vector ETV
attr enum IDLE=0,TRANSMIT=1
attr recordingmode vector
attr source state
attr title "Radio state"
vector 3 Aloha.host[1] radioState:vector ETV
attr enum IDLE=0,TRANSMIT=1
attr recordingmode vector
attr source state
attr title "Radio state"
vector 4 Aloha.host[2] radioState:vector ETV
attr enum IDLE=0,TRANSMIT=1
attr recordingmode vector
attr source state
attr title "Radio state"
vector 5 Aloha.host[3] radioState:vector ETV
attr enum IDLE=0,TRANSMIT=1
attr recordingmode vector
attr source state
attr title "Radio state"
vector 6 Aloha.host[4] radioState:vector ETV
attr enum IDLE=0,TRANSMIT=1
attr recordingmode vector
attr source state
attr title "Radio state"
vector 7 Aloha.host[5] radioState:vector ETV
attr enum IDLE=0,TRANSMIT=1
attr recordingmode vector
attr source state
attr title "Radio state"
vector 8 Aloha.host[6] radioState:vector ETV
attr enum IDLE=0,TRANSMIT=1
attr recordingmode vector
attr source state
attr title "Radio state"
vector 9 Aloha.host[7] radioState:vector ETV
attr enum IDLE=0,TRANSMIT=1
attr recordingmode vector
attr source state
attr title "Radio state"
vector 10 Aloha.host[8] radioState:vector ETV
attr enum IDLE=0,TRANSMIT=1
attr recordingmode vector
attr source state
attr title "Radio state"
vector 11 Aloha.host[9] radioState:vector ETV
attr enum IDLE=0,TRANSMIT=1
attr recordingmode vector
attr source state
attr title "Radio state"
vector 12 Aloha.host[10] radioState:vector ETV
attr enum IDLE=0,TRANSMIT=1
attr recordingmode vector
attr source state
attr title "Radio state"
vector 13 Aloha.host[11] radioState:vector ETV
attr enum IDLE=0,TRANSMIT=1
attr recordingmode vector
attr source state
attr title "Radio state"
vector 14 Aloha.host[12] radioState:vector ETV
attr enum IDLE=0,TRANSMIT=1
attr recordingmode vector
attr source state
attr title "Radio state"
vector 15 Aloha.host[13] radioState:vector ETV
attr enum IDLE=0,TRANSMIT=1
attr recordingmode vector
attr source state
attr title "Radio state"
vector 16 Aloha.host[14] radioState:vector ETV
attr enum IDLE=0,TRANSMIT=1
attr recordingmode vector
attr source state
attr title "Radio state"
vector 17 Aloha.host[15] radioState:vector ETV
attr enum IDLE=0,TRANSMIT=1
attr recordingmode vector
attr source state
attr title "Radio state"
vector 18 Aloha.host[16] radioState:vector ETV
attr enum IDLE=0,TRANSMIT=1
attr recordingmode vector
attr source state
attr title "Radio state"
vector 19 Aloha.host[17] radioState:vector ETV
attr enum IDLE=0,TRANSMIT=1
attr recordingmode vector
attr source state
attr title "Radio state"
vector 20 Aloha.host[18] radioState:vector ETV
attr enum IDLE=0,TRANSMIT=1
attr recordingmode vector
attr source state
attr title "Radio state"
vector 21 Aloha.host[19] radioState:vector ETV
attr enum IDLE=0,TRANSMIT=1
attr recordingmode vector
attr source state
attr title "Radio state"
0	0	0	0
0	2	0.468867079273	1
0	4	0.56803374594	0
0	6	1.083452651495	1
0	8	1.182619318162	0
0	10	2.188450156482	1
0	12	2.287616823149	0
0	14	2.366254455091	1
0	16	2.465421121758	0
0	18	2.829569041127	1
0	20	2.928735707794	0
0	22	3.071821971467	1
0	24	3.170988638134	0
0	26	5.736760328574	1
0	28	5.835926995241	0
0	30	6.556067881562	1
0	32	6.61089345531	2
0	34	6.611051106946	2
0	37	6.685806583796	2
0	41	6.784973250463	0
0	43	7.209895192764	1
0	45	7.309061859431	0
0	47	7.910974068786	1
0	49	8.010140735453	0
0	51	8.036438965698	1
0	53	8.135605632365	0
0	55	8.382241014221	1
0	57	8.481407680888	0
0	59	8.516505469281	1
0	61	8.57806703314	2
0	64	8.650077342969	2
0	67	8.749244009636	0
0	69	8.763119714534	1
0	71	8.814122937606	2
0	74	8.913289604273	0
0	76	9.17849248543	1
0	78	9.277659152097	0
0	80	9.470395468266	1
0	82	9.569562134933	0
0	84	9.708435007995	1
0	86	9.807601674662	0
0	88	9.835027639434	1
0	90	9.880386067179	2
0	93	9.972710685578	2
0	96	10.071877352245	0
0	98	10.214659655839	1
0	100	10.220154849915	2
0	102	10.247197430305	2
0	105	10.313904559983	2
0	109	10.41307122665	0
0	111	10.515329124341	1
0	113	10.568218595719	2
0	116	10.667385262386	0
0	118	10.674576765596	1
0	120	10.773743432263	0
0	122	10.984139994331	1
0	124	11.083306660998	0
0	126	11.192370172623	1
0	128	11.29153683929	0
0	130	11.485875529617	1
0	132	11.561543837408	2
0	135	11.660710504075	0
0	137	11.733291261388	1
0	139	11.832457928055	0
0	141	12.250146426345	1
0	143	12.349313093012	0
0	145	12.62684954672	1
0	147	12.726016213387	0
0	149	12.80841640376	1
0	151	12.907583070427	0
0	153	13.124887919	1
0	155	13.224054585667	0
0	157	13.369834805183	1
0	159	13.46900147185	0
0	161	13.627032097785	1
0	163	13.726198764452	0
0	165	13.786558862469	1
0	167	13.885725529136	0
0	169	14.694727893513	1
0	171	14.79389456018	0
0	173	15.110608982472	1
0	175	15.209775649139	0
0	177	15.479648399496	1
0	179	15.578815066163	0
0	181	16.70035725491	1
0	183	16.718136387876	2
0	186	16.817303054543	0
0	188	16.914624659908	1
0	190	17.013791326575	0
0	192	17.368156104047	1
0	194	17.467322770714	0
0	196	18.505648744665	1
0	198	18.604815411332	0
0	200	18.849588852334	1
0	202	18.948755519001	0
0	204	19.856562755346	1
0	206	19.955729422013	0
0	208	20.452177825648	1
0	210	20.551344492315	0
0	212	20.704533163848	1
0	214	20.803699830515	0
0	216	21.026140067848	1
0	218	21.125306734515	0
0	220	21.711031798816	1
0	222	21.810198465483	0
0	224	22.07113317945	1
0	226	22.170299846117	0
0	228	22.798139846595	1
0	230	22.897306513262	0
0	232	23.804527094863	1
0	234	23.90369376153	0
0	236	24.105039783126	1
0	238	24.126878778212	2
0	241	24.226045444879	0
0	243	24.308083745464	1
0	245	24.407250412131	0
0	247	24.619254272467	1
0	249	24.718420939134	0
0	251	24.73104722215	1
0	253	24.830213888817	0
0	255	24.971195603375	1
0	257	25.070362270042	0
0	259	25.188748348759	1
0	261	25.287915015426	0
0	263	25.506495015236	1
0	265	25.605661681903	0
0	267	25.694118016415	1
0	269	25.793284683082	0
0	271	26.859306215876	1
0	273	26.958472882543	0
0	275	27.89046634163	1
0	277	27.989633008297	0
0	279	29.100939760972	1
0	281	29.118073086603	2
0	284	29.21723975327	0
0	286	29.329325473506	1
0	288	29.428492140173	0
0	290	29.589762452743	1
0	292	29.68892911941	0
0	294	30.02223821886	1
0	296	30.121404885527	0
0	298	30.478085451923	1
0	300	30.57725211859	0
0	302	31.129621475007	1
0	304	31.228788141674	0
0	306	31.232569081477	1
0	308	31.331735748144	0
0	310	32.043146687178	1
0	312	32.142313353845	0
0	314	32.156477659068	1
0	316	32.255644325735	0
0	318	32.876027497208	1
0	320	32.975194163875	0
0	322	33.058657558967	1
0	324	33.157824225634	0
0	326	33.23469128492	1
0	328	33.32584725223	2
0	331	33.425013918897	0
0	333	33.568484315358	1
0	335	33.667650982025	0
0	337	33.750306088192	1
0	339	33.80763050372	2
0	342	33.906797170387	0
0	344	34.485090717605	1
0	346	34.564437162799	2
0	349	34.663603829466	0
0	351	35.360447885692	1
0	353	35.4189460218	2
0	356	35.518112688467	0
0	358	35.528355493157	1
0	360	35.627522159824	0
0	362	36.041447432259	1
0	364	36.140614098926	0
0	366	36.28167895345	1
0	368	36.380845620117	0
0	370	36.533756044875	1
0	372	36.591116130414	2
0	375	36.690282797081	0
0	377	36.71317094899	1
0	379	36.812337615657	0
0	381	36.948884774169	1
0	383	37.048051440836	0
0	385	37.197039526338	1
0	387	37.296206193005	0
0	389	37.873970902206	1
0	391	37.973137568873	0
0	393	39.078049405526	1
0	395	39.177216072193	0
0	397	39.670728935129	1
0	399	39.769895601796	0
0	401	39.803294946286	1
0	403	39.902461612953	0
0	405	39.95857359389	1
0	407	40.057740260557	0
0	409	40.445721747407	1
0	411	40.544888414074	0
0	413	40.57250880647	1
0	415	40.671675473137	0
0	417	40.682556776593	1
0	419	40.78172344326	0
0	421	40.831393446598	1
0	423	40.930560113265	0
0	425	41.559977861609	1
0	427	41.659144528276	0
0	429	42.883993223352	1
0	431	42.940962792296	2
0	434	43.040129458963	0
0	436	43.321201346095	1
0	438	43.420368012762	0
0	440	44.092831443225	1
0	442	44.191998109892	0
0	444	45.036986171328	1
0	446	45.136152837995	0
0	448	45.45688394342	1
0	450	45.509612376103	2
0	453	45.60877904277	0
0	455	45.667171569216	1
0	457	45.693381990608	2
0	459	45.730879449623	2
0	463	45.83004611629	0
0	465	45.982191980306	1
0	467	46.081358646973	0
0	469	46.156500224032	1
0	471	46.210647670903	2
0	474	46.30981433757	0
0	476	46.767333859863	1
0	478	46.86650052653	0
0	480	48.272828839927	1
0	482	48.364543775335	2
0	485	48.383008286151	2
0	487	48.409154769954	2
0	491	48.508321436621	0
0	493	48.57464437501	1
0	495	48.673811041677	0
0	497	48.944924016766	1
0	499	49.044090683433	0
0	501	49.059476383987	1
0	503	49.158643050654	0
0	505	49.268364062579	1
0	507	49.367530729246	0
0	509	49.920669014613	1
0	511	50.01983568128	0
0	513	50.05241877381	1
0	515	50.095698379769	2
0	518	50.194865046436	0
0	520	50.794348055797	1
0	522	50.893514722464	0
0	524	51.046849194819	1
0	526	51.146015861486	0
0	528	51.524713211495	1
0	530	51.623879878162	0
0	532	52.194142375498	1
0	534	52.23365056219	2
0	537	52.324975377766	2
0	540	52.424142044433	0
0	542	52.521505741598	1
0	544	52.582598745888	2
0	547	52.681765412555	0
0	549	52.873782765828	1
0	551	52.972949432495	0
0	553	53.023879938356	1
0	555	53.123046605023	0
0	557	54.224346859186	1
0	559	54.323513525853	0
0	561	55.259903034837	1
0	563	55.359069701504	0
0	565	55.392292019213	1
0	567	55.49145868588	0
0	569	55.593071758468	1
0	571	55.692238425135	0
0	573	56.518869825451	1
0	575	56.618036492118	0
0	577	56.769024455379	1
0	579	56.868191122046	0
0	581	58.299940112547	1
0	583	58.399106779214	0
0	585	59.186693475056	1
0	587	59.285860141723	0
0	589	60.562896503518	1
0	591	60.662063170185	0
0	593	61.341742170964	1
0	595	61.440908837631	0
0	597	62.019675817425	1
0	599	62.118842484092	0
0	601	62.275088476232	1
0	603	62.374255142899	0
0	605	62.64045665569	1
0	607	62.739623322357	0
0	609	63.177771177542	1
0	611	63.182147688338	2
0	614	63.281314355005	0
0	616	63.307984039687	1
0	618	63.407150706354	0
0	620	63.451686904568	1
0	622	63.550853571235	0
0	624	63.553030153821	1
0	626	63.652196820488	0
0	628	63.836292671245	1
0	630	63.935459337912	0
0	632	64.168095511604	1
0	634	64.267262178271	0
0	636	64.644737667996	1
0	638	64.743904334663	0
0	640	64.981428165877	1
0	642	65.080594832544	0
0	644	65.213047949255	1
0	646	65.312214615922	0
0	648	65.538268864135	1
0	650	65.637435530802	0
0	652	65.743083161375	1
0	654	65.842249828042	0
0	656	66.152902447405	1
0	658	66.252069114072	0
0	660	66.273968642753	1
0	662	66.334404357682	2
0	665	66.433571024349	0
0	667	67.348818281148	1
0	669	67.447984947815	0
0	671	67.901015586459	1
0	673	68.000182253126	0
0	675	68.253155268475	1
0	677	68.352321935142	0
0	679	68.432256264134	1
0	681	68.510357475881	2
0	684	68.609524142548	0
0	686	69.716074755633	1
0	688	69.8152414223	0
0	690	70.459868226425	1
0	692	70.559034893092	0
0	694	71.125134597499	1
0	696	71.224301264166	0
0	698	71.402590246745	1
0	700	71.501756913412	0
0	702	72.51016751032	1
0	704	72.609334176987	0
0	706	73.294015525174	1
0	708	73.393182191841	0
0	710	73.402081854292	1
0	712	73.501248520959	0
0	714	75.145808628855	1
0	716	75.191955528135	2
0	719	75.291122194802	0
0	721	75.39119436722	1
0	723	75.490361033887	0
0	725	75.762911579409	1
0	727	75.862078246076	0
0	729	76.131774841828	1
0	731	76.136236864374	2
0	734	76.235403531041	0
0	736	76.270236764737	1
0	738	76.369403431404	0
0	740	76.79810964688	1
0	742	76.897276313547	0
0	744	77.156881279727	1
0	746	77.256047946394	0
0	748	77.304784828103	1
0	750	77.40395149477	0
0	752	77.504925002279	1
0	754	77.604091668946	0
0	756	77.75246159419	1
0	758	77.851628260857	0
0	760	78.410300679059	1
0	762	78.509467345726	0
0	764	78.897983894723	1
0	766	78.99715056139	0
0	768	79.879892110374	1
0	770	79.979058777041	0
0	772	80.000028247985	1
0	774	80.099194914652	0
0	776	80.23277456959	1
0	778	80.331941236257	0
0	780	80.381477925232	1
0	782	80.480644591899	0
0	784	80.493231517936	1
0	786	80.507689380595	2
0	788	80.546716237915	2
0	792	80.645882904582	0
0	794	80.689274416169	1
0	796	80.788441082836	0
0	798	80.935970219312	1
0	800	81.035136885979	0
0	802	81.467634086286	1
0	804	81.522863200481	2
0	806	81.550628607548	2
0	809	81.592084531594	2
0	813	81.691251198261	0
0	815	81.815442435601	1
0	817	81.826621207155	2
0	819	81.833272393069	2
0	823	81.932439059736	0
0	825	82.001522112232	1
0	827	82.100688778899	0
0	829	82.37489272382	1
0	831	82.466492136318	2
0	834	82.565658802985	0
0	836	82.794690047426	1
0	838	82.805470912345	2
0	841	82.904637579012	0
0	843	82.980818366281	1
0	845	83.079985032948	0
0	847	83.909230942112	1
0	849	84.008397608779	0
0	851	84.431350432491	1
0	853	84.530517099158	0
0	855	84.536347382567	1
0	857	84.635514049234	0
0	859	85.001862963659	1
0	861	85.040240651316	2
0	864	85.139407317983	0
0	866	85.468505854576	1
0	868	85.567672521243	0
0	870	85.803396414229	1
0	872	85.902563080896	0
0	874	85.903044081689	1
0	876	85.923884683207	2
0	878	85.936206481916	2
0	882	86.035373148583	0
0	884	87.373314632061	1
0	886	87.472481298728	0
0	888	87.676131613409	1
0	890	87.775298280076	0
0	892	88.036113072842	1
0	894	88.135279739509	0
0	896	88.184404561623	1
0	898	88.28357122829	0
0	900	88.346876364064	1
0	902	88.446043030731	0
0	904	89.304510588436	1
0	906	89.403677255103	0
0	908	89.738072733219	1
0	910	89.837239399886	0
0	912	90.777933361554	1
0	914	90.877100028221	0
0	916	91.25332591022	1
0	918	91.352492576887	0
0	920	91.382511467386	1
0	922	91.42560968009	2
0	924	91.472678445922	2
0	928	91.571845112589	0
0	930	91.914778979074	1
0	932	92.013945645741	0
0	934	92.695106846449	1
0	936	92.701820054682	2
0	939	92.800986721349	0
0	941	93.177086060816	1
0	943	93.276252727483	0
0	945	93.286874922025	1
0	947	93.386041588692	0
0	949	93.481587317779	1
0	951	93.580753984446	0
0	953	93.659951115929	1
0	955	93.759117782596	0
0	957	93.947672396113	1
0	959	94.04683906278	0
0	961	94.194394540525	1
0	963	94.279206906785	2
0	966	94.378373573452	0
0	968	94.421139161009	1
0	970	94.520305827676	0
0	972	94.608168958864	1
0	974	94.707335625531	0
0	976	94.815423756021	1
0	978	94.901598886612	2
0	981	95.000765553279	0
0	983	95.000850637332	1
0	985	95.004986232029	2
0	987	95.010751332342	2
0	991	95.109917999009	0
0	993	95.403259789473	1
0	995	95.50242645614	0
0	997	95.612744332126	1
0	999	95.711910998793	0
0	1001	95.91528040662	1
0	1003	96.014447073287	0
0	1005	96.367992625508	1
0	1007	96.467159292175	0
0	1009	96.509927886025	1
0	1011	96.574060753586	2
0	1014	96.621275031001	2
0	1017	96.720441697668	0
0	1019	97.224056524173	1
0	1021	97.32322319084	0
0	1023	97.610239723388	1
0	1025	97.611588505602	2
0	1028	97.710755172269	0
0	1030	97.72686300741	1
0	1032	97.790726693895	2
0	1034	97.793966445906	2
0	1037	97.860541139247	2
0	1041	97.959707805914	0
0	1043	98.347464519306	1
0	1045	98.446631185973	0
0	1047	98.446741502024	1
0	1049	98.481095752235	2
0	1052	98.580262418902	0
0	1054	98.643291885165	1
0	1056	98.710500221037	2
0	1059	98.809666887704	0
0	1061	99.689397982523	1
0	1063	99.78856464919	0
0	1065	100.122486699079	1
0	1067	100.221653365746	0
0	1069	100.913948548421	1
0	1071	101.013115215088	0
0	1073	101.552072876845	1
0	1075	101.651239543512	0
0	1077	101.744008164789	1
0	1079	101.80732801853	2
0	1082	101.906494685197	0
0	1084	101.909351297666	1
0	1086	102.008517964333	0
0	1088	102.267960707879	1
0	1090	102.367127374546	0
0	1092	102.439285124145	1
0	1094	102.538451790812	0
0	1096	102.700231268616	1
0	1098	102.799397935283	0
0	1100	103.031506826228	1
0	1102	103.130673492895	0
0	1104	103.610981028873	1
0	1106	103.71014769554	0
0	1108	104.086100038065	1
0	1110	104.185266704732	0
0	1112	104.330766965499	1
0	1114	104.429933632166	0
0	1116	105.574142475525	1
0	1118	105.673309142192	0
0	1120	105.813743394737	1
0	1122	105.912910061404	0
0	1124	106.827645733431	1
0	1126	106.926812400098	0
0	1128	106.956048729672	1
0	1130	107.055215396339	0
0	1132	107.239385105406	1
0	1134	107.338551772073	0
0	1136	107.344964104889	1
0	1138	107.382984859289	2
0	1141	107.482151525956	0
0	1143	107.516031137757	1
0	1145	107.615197804424	0
0	1147	107.654363384617	1
0	1149	107.753530051284	0
0	1151	108.125458075826	1
0	1153	108.224624742493	0
0	1155	108.231058261873	1
0	1157	108.33022492854	0
0	1159	108.520906876112	1
0	1161	108.620073542779	0
0	1163	109.584314827175	1
0	1165	109.683481493842	0
0	1167	109.750144419155	1
0	1169	109.849311085822	0
0	1171	109.885341997478	1
0	1173	109.984508664145	0
0	1175	110.437140231465	1
0	1177	110.536306898132	0
0	1179	110.565559981355	1
0	1181	110.573904652369	2
0	1184	110.673071319036	0
0	1186	110.790761677377	1
0	1188	110.889928344044	0
0	1190	110.977504321237	1
0	1192	111.076670987904	0
0	1194	111.489634281149	1
0	1196	111.552597196159	2
0	1199	111.651763862826	0
0	1201	111.797618535542	1
0	1203	111.896785202209	0
0	1205	111.939954287658	1
0	1207	111.94445443451	2
0	1210	112.043621101177	0
0	1212	112.234123108162	1
0	1214	112.333289774829	0
0	1216	113.256810706218	1
0	1218	113.355977372885	0
0	1220	113.813150383022	1
0	1222	113.912317049689	0
0	1224	114.036146083289	1
0	1226	114.135312749956	0
0	1228	114.323394805323	1
0	1230	114.42256147199	0
0	1232	114.520077484545	1
0	1234	114.577750757371	2
0	1237	114.676917424038	0
0	1239	115.525495576038	1
0	1241	115.624662242705	0
0	1243	116.352162982213	1
0	1245	116.414140796396	2
0	1248	116.513307463063	0
0	1250	117.055435123392	1
0	1252	117.154601790059	0
0	1254	117.931205555235	1
0	1256	118.030372221902	0
0	1258	118.125069178084	1
0	1260	118.13511037848	2
0	1262	118.211842868016	2
0	1266	118.289489724576	2
0	1269	118.352683915923	2
0	1272	118.45185058259	0
0	1274	118.856309102937	1
0	1276	118.955475769604	0
0	1278	119.000813545179	1
0	1280	119.056488729466	2
0	1283	119.153628708067	2
0	1285	119.154039723315	2
0	1289	119.253206389982	0
0	1291	119.309439292256	1
0	1293	119.408605958923	0
0	1295	119.620704291902	1
0	1297	119.709810125228	2
0	1300	119.808976791895	0
0	1302	119.849995096644	1
0	1304	119.949161763311	0
0	1306	120.525625563965	1
0	1308	120.624792230632	0
0	1310	120.930396481065	1
0	1312	121.029563147732	0
0	1314	121.038809030403	1
0	1316	121.13797569707	0
0	1318	121.532095730438	1
0	1320	121.631262397105	0
0	1322	121.939115203622	1
0	1324	122.011033259609	2
0	1327	122.059895462472	2
0	1330	122.159062129139	0
0	1332	122.211835265688	1
0	1334	122.311001932355	0
0	1336	122.568555065688	1
0	1338	122.667721732355	0
0	1340	123.171564436524	1
0	1342	123.270731103191	0
0	1344	123.535941311867	1
0	1346	123.635107978534	0
0	1348	123.838510172798	1
0	1350	123.937676839465	0
0	1352	124.231224201417	1
0	1354	124.271062905024	2
0	1357	124.370229571691	0
0	1359	124.882815673852	1
0	1361	124.981982340519	0
0	1363	125.691421634564	1
0	1365	125.790588301231	0
0	1367	126.138624667884	1
0	1369	126.237791334551	0
0	1371	126.260662470257	1
0	1373	126.359829136924	0
0	1375	126.370278133306	1
0	1377	126.469444799973	0
0	1379	126.830899158276	1
0	1381	126.881278363684	2
0	1384	126.980445030351	0
0	1386	127.210030601451	1
0	1388	127.309197268118	0
0	1390	127.488281421922	1
0	1392	127.587448088589	0
0	1394	127.605038337174	1
0	1396	127.704205003841	0
0	1398	127.809863639037	1
0	1400	127.909030305704	0
0	1402	128.042431587988	1
0	1404	128.141598254655	0
0	1406	128.147367159673	1
0	1408	128.24653382634	0
0	1410	128.925429937797	1
0	1412	128.993856632571	2
0	1414	129.00386071834	2
0	1418	129.103027385007	0
0	1420	129.210846434205	1
0	1422	129.310013100872	0
0	1424	129.38866575379	1
0	1426	129.487832420457	0
0	1428	129.885387226564	1
0	1430	129.984553893231	0
0	1432	130.103605518025	1
0	1434	130.202772184692	0
0	1436	131.023095046971	1
0	1438	131.122261713638	0
0	1440	131.692430520887	1
0	1442	131.697411574451	2
0	1444	131.785879002145	2
0	1448	131.885045668812	0
0	1450	131.966671133315	1
0	1452	132.065837799982	0
0	1454	132.198833678218	1
0	1456	132.221539903196	2
0	1459	132.320706569863	0
0	1461	133.223297335234	1
0	1463	133.322464001901	0
0	1465	133.353664683711	1
0	1467	133.452831350378	0
0	1469	134.243286474905	1
0	1471	134.342453141572	0
0	1473	134.399887215912	1
0	1475	134.499053882579	0
0	1477	134.84726832038	1
0	1479	134.946434987047	0
0	1481	135.177641393183	1
0	1483	135.268656608959	2
0	1486	135.367823275626	0
0	1488	135.547387287115	1
0	1490	135.646553953782	0
0	1492	135.811671693293	1
0	1494	135.839018171275	2
0	1497	135.938184837942	0
0	1499	136.365312471249	1
0	1501	136.464479137916	0
0	1503	136.572231539774	1
0	1505	136.608075006331	2
0	1508	136.691533306886	2
0	1511	136.790699973553	0
0	1513	136.906611841074	1
0	1515	137.005778507741	0
0	1517	137.044214588441	1
0	1519	137.143381255108	0
0	1521	137.385310881134	1
0	1523	137.484477547801	0
0	1525	137.551231098364	1
0	1527	137.650397765031	0
0	1529	138.226465435013	1
0	1531	138.32563210168	0
0	1533	138.666495028216	1
0	1535	138.743712213769	2
0	1538	138.842878880436	0
0	1540	138.888920687604	1
0	1542	138.988087354271	0
0	1544	139.17851598334	1
0	1546	139.277682650007	0
0	1548	139.970345723808	1
0	1550	140.069512390475	0
0	1552	140.119263146984	1
0	1554	140.149018309096	2
0	1557	140.248184975763	0
0	1559	140.476697901109	1
0	1561	140.575864567776	0
0	1563	140.603667458159	1
0	1565	140.702834124826	0
0	1567	141.660493833208	1
0	1569	141.759660499875	0
0	1571	142.144355702298	1
0	1573	142.243522368965	0
0	1575	142.545104590799	1
0	1577	142.644271257466	0
0	1579	142.801023334561	1
0	1581	142.900190001228	0
0	1583	143.559226715231	1
0	1585	143.658393381898	0
0	1587	143.92910081208	1
0	1589	144.028267478747	0
0	1591	144.119268281177	1
0	1593	144.218434947844	0
0	1595	144.496119264234	1
0	1597	144.532383104759	2
0	1600	144.631549771426	0
0	1602	144.677407144617	1
0	1604	144.775424340567	2
0	1607	144.874591007234	0
0	1609	145.799531361274	1
0	1611	145.898698027941	0
0	1613	145.95065692819	1
0	1615	146.049823594857	0
0	1617	146.380961868194	1
0	1619	146.432492287526	2
0	1622	146.531658954193	0
0	1624	147.197433990749	1
0	1626	147.296600657416	0
0	1628	148.350151006264	1
0	1630	148.449317672931	0
0	1632	148.521922478915	1
0	1634	148.620580158717	2
0	1637	148.693205104205	2
0	1640	148.792371770872	0
0	1642	149.025950581506	1
0	1644	149.125117248173	0
0	1646	149.174429164934	1
0	1648	149.273595831601	0
0	1650	149.588402937759	1
0	1652	149.659097370931	2
0	1654	149.659927308854	2
0	1658	149.759093975521	0
0	1660	150.390610531373	1
0	1662	150.48977719804	0
0	1664	150.798706909246	1
0	1666	150.83426694427	2
0	1669	150.933433610937	0
0	1671	152.216037275207	1
0	1673	152.315203941874	0
0	1675	152.326478987379	1
0	1677	152.425645654046	0
0	1679	152.485813915775	1
0	1681	152.584980582442	0
0	1683	153.672363516743	1
0	1685	153.77153018341	0
0	1687	154.096058245343	1
0	1689	154.19522491201	0
0	1691	154.257812392185	1
0	1693	154.356979058852	0
0	1695	154.516938537364	1
0	1697	154.616105204031	0
0	1699	154.779324102757	1
0	1701	154.878490769424	0
0	1703	155.065976185202	1
0	1705	155.165142851869	0
0	1707	155.26118380286	1
0	1709	155.360350469527	0
0	1711	155.595842690871	1
0	1713	155.695009357538	0
0	1715	156.071918272392	1
0	1717	156.171084939059	0
0	1719	156.718553975893	1
0	1721	156.81772064256	0
0	1723	156.863158458832	1
0	1725	156.885414608145	2
0	1728	156.984581274812	0
0	1730	157.325247299175	1
0	1732	157.391350450791	2
0	1735	157.490517117458	0
0	1737	157.661726843573	1
0	1739	157.76089351024	0
0	1741	157.765887487401	1
0	1743	157.865054154068	0
0	1745	158.247246485535	1
0	1747	158.346413152202	0
0	1749	158.884381642245	1
0	1751	158.983548308912	0
0	1753	159.603459578965	1
0	1755	159.702626245632	0
0	1757	159.917115536794	1
0	1759	160.016282203461	0
0	1761	160.393852508239	1
0	1763	160.451657414141	2
0	1766	160.550824080808	0
0	1768	160.62641384996	1
0	1770	160.63143281086	2
0	1773	160.730599477527	0
0	1775	161.600967196989	1
0	1777	161.652481864359	2
0	1780	161.751648531026	0
0	1782	162.150838688381	1
0	1784	162.250005355048	0
0	1786	162.314935318619	1
0	1788	162.414101985286	0
0	1790	162.841300798594	1
0	1792	162.852979271423	2
0	1795	162.95214593809	0
0	1797	163.285292796026	1
0	1799	163.384459462693	0
0	1801	163.799570132717	1
0	1803	163.898736799384	0
0	1805	164.275284956741	1
0	1807	164.374451623408	0
0	1809	164.379676429546	1
0	1811	164.446782097103	2
0	1814	164.54594876377	0
0	1816	164.905064447496	1
0	1818	165.004231114163	0
0	1820	165.486679715146	1
0	1822	165.585846381813	0
0	1824	165.980998190039	1
0	1826	166.080164856706	0
0	1828	166.152543373424	1
0	1830	166.204647578361	2
0	1833	166.29440829065	2
0	1836	166.393574957317	0
0	1838	166.612621838119	1
0	1840	166.711788504786	0
0	1842	166.837761123762	1
0	1844	166.936927790429	0
0	1846	167.008740294854	1
0	1848	167.092885438357	2
0	1851	167.192052105024	0
0	1853	167.540685287793	1
0	1855	167.63985195446	0
0	1857	167.891014059362	1
0	1859	167.916009236746	2
0	1862	168.015175903413	0
0	1864	168.148816566368	1
0	1866	168.241873567022	2
0	1869	168.296992266402	2
0	1872	168.396158933069	0
0	1874	169.155131144245	1
0	1876	169.254297810912	0
0	1878	169.703659445139	1
0	1880	169.802826111806	0
0	1882	169.878859765837	1
0	1884	169.978026432504	0
0	1886	169.99988966079	1
0	1888	170.099056327457	0
0	1890	170.213819322809	1
0	1892	170.312985989476	0
0	1894	170.537949656742	1
0	1896	170.637116323409	0
0	1898	170.998300917131	1
0	1900	171.097467583798	0
0	1902	171.284595560192	1
0	1904	171.383762226859	0
0	1906	171.688305673474	1
0	1908	171.749507875221	2
0	1911	171.848674541888	0
0	1913	172.326059140651	1
0	1915	172.425225807318	0
0	1917	172.548066285685	1
0	1919	172.647232952352	0
0	1921	173.260030465432	1
0	1923	173.359197132099	0
0	1925	173.379086212117	1
0	1927	173.478252878784	0
0	1929	173.616536687773	1
0	1931	173.71570335444	0
0	1933	174.322012308968	1
0	1935	174.345740542305	2
0	1938	174.444907208972	0
0	1940	175.109065518895	1
0	1942	175.208232185562	0
0	1944	175.354348625567	1
0	1946	175.453515292234	0
0	1948	175.497700831312	1
0	1950	175.596867497979	0
0	1952	176.965180694302	1
0	1954	177.064347360969	0
0	1956	178.070884192899	1
0	1958	178.170050859566	0
0	1960	178.355415008111	1
0	1962	178.404305764895	2
0	1965	178.503472431562	0
0	1967	178.505864685615	1
0	1969	178.605031352282	0
0	1971	178.636032217314	1
0	1973	178.735198883981	0
0	1975	178.787932888308	1
0	1977	178.887099554975	0
0	1979	178.998296876684	1
0	1981	179.097463543351	0
0	1983	179.28153580246	1
0	1985	179.345247853253	2
0	1988	179.44441451992	0
0	1990	179.485403539592	1
0	1992	179.517886803538	2
0	1995	179.617053470205	0
0	1997	179.716727727696	1
0	1999	179.815894394363	0
0	2001	180.189075118482	1
0	2003	180.25902010803	2
0	2006	180.358186774697	0
0	2008	180.386863287541	1
0	2010	180.486029954208	0
0	2012	180.638270042882	1
0	2014	180.67702010613	2
0	2017	180.776186772797	0
0	2019	181.265642725744	1
0	2021	181.364809392411	0
0	2023	181.481288242703	1
0	2025	181.58045490937	0
0	2027	181.665849280307	1
0	2029	181.672080757051	2
0	2032	181.771247423718	0
0	2034	182.551651410397	1
0	2036	182.650818077064	0
0	2038	182.700860723304	1
0	2040	182.775752594426	2
0	2043	182.874919261093	0
0	2045	183.038978547376	1
0	2047	183.060917270795	2
0	2050	183.160083937462	0
0	2052	183.302828755316	1
0	2054	183.351178141173	2
0	2057	183.45034480784	0
0	2059	183.700794392958	1
0	2061	183.799961059625	0
0	2063	184.148696343235	1
0	2065	184.190253453556	2
0	2068	184.289420120223	0
0	2070	184.317813158412	1
0	2072	184.368347260262	2
0	2075	184.436891203174	2
0	2078	184.536057869841	0
0	2080	185.093717634181	1
0	2082	185.192884300848	0
0	2084	186.081174900115	1
0	2086	186.180341566782	0
0	2088	186.379021656146	1
0	2090	186.478188322813	0
0	2092	187.074249154074	1
0	2094	187.173415820741	0
0	2096	187.388631676847	1
0	2098	187.487798343514	0
0	2100	188.05373037629	1
0	2102	188.055087252726	2
0	2105	188.154253919393	0
0	2107	188.686762483349	1
0	2109	188.785929150016	0
0	2111	189.828689486028	1
0	2113	189.927856152695	0
0	2115	190.505540964436	1
0	2117	190.604707631103	0
0	2119	190.797946487779	1
0	2121	190.897113154446	0
0	2123	191.526820241123	1
0	2125	191.62598690779	0
0	2127	191.7689833371	1
0	2129	191.868150003767	0
0	2131	192.095578800354	1
0	2133	192.185576917095	2
0	2136	192.284646836366	2
0	2139	192.383813503033	0
0	2141	192.686409480367	1
0	2143	192.785576147034	0
0	2145	192.841846979469	1
0	2147	192.941013646136	0
0	2149	193.534590232996	1
0	2151	193.600969570683	2
0	2154	193.634106810924	2
0	2157	193.733273477591	0
0	2159	193.769893028713	1
0	2161	193.86905969538	0
0	2163	194.909281327946	1
0	2165	195.008447994613	0
0	2167	195.105350661741	1
0	2169	195.204517328408	0
0	2171	195.21957843183	1
0	2173	195.318745098497	0
0	2175	195.466477760704	1
0	2177	195.519368808543	2
0	2180	195.61853547521	0
0	2182	196.033641021218	1
0	2184	196.132807687885	0
0	2186	196.437806586762	1
0	2188	196.536973253429	0
0	2190	196.579993559024	1
0	2192	196.637709531547	2
0	2195	196.736876198214	0
0	2197	196.833644021279	1
0	2199	196.932810687946	0