version 3
run PureAlohaExperiment-18-20250302-16:22:02-14228
attr configname PureAlohaExperiment
attr datetime 20250302-16:22:02
attr datetimef 20250302-162202
attr experiment PureAlohaExperiment
attr inifile omnetpp.ini
attr iterationvars "$numHosts=20, $iaMean=5"
attr iterationvarsd numHosts=20/iaMean=5
attr iterationvarsf numHosts=20,iaMean=5-
attr measurement "$numHosts=20, $iaMean=5"
attr network Aloha
attr processid 14228
attr repetition 0
attr replication #0
attr resultdir results
attr runnumber 18
attr seedset 18
itervar iaMean 5
itervar numHosts 20
config description "Channel utilization in the function of packet generation frequency"
config repeat 1
config sim-time-limit 90min
config Aloha.numHosts 20
config Aloha.host[*].iaTime exponential(5s)
config network Aloha
config Aloha.numHosts 20
config Aloha.slotTime 0s
config Aloha.txRate 9.6kbps
config Aloha.host[*].pkLenBits 952b
config **.x "uniform(0m, 1000m)"
config **.y "uniform(0m, 1000m)"
config **.animationHoldTimeOnCollision 0s
config **.idleAnimationSpeed 1
config **.transmissionEdgeAnimationSpeed 1e-6
config **.midTransmissionAnimationSpeed 1e-1

vector 0 Aloha.server serverChannelState:vector ETV
attr enum IDLE=0,TRANSMISSION=1,COLLISION=2
attr recordingmode vector
attr source channelState
attr title "Channel state"
vector 1 Aloha.server channelUtilization:vector ETV
attr interpolationmode linear
attr recordingmode vector
attr source timeavg(receive)
attr title "channel utilization"
vector 2 Aloha.host[0] radioState:vector ETV
attr enum IDLE=0,TRANSMIT=1
attr recordingmode vector
attr source state
attr title "Radio state"
vector 3 Aloha.host[1] radioState:vector ETV
attr enum IDLE=0,TRANSMIT=1
attr recordingmode vector
attr source state
attr title "Radio state"
vector 4 Aloha.host[2] radioState:vector ETV
attr enum IDLE=0,TRANSMIT=1
attr recordingmode vector
attr source state
attr title "Radio state"
vector 5 Aloha.host[3] radioState:vector ETV
attr enum IDLE=0,TRANSMIT=1
attr recordingmode vector
attr source state
attr title "Radio state"
vector 6 Aloha.host[4] radioState:vector ETV
attr enum IDLE=0,TRANSMIT=1
attr recordingmode vector
attr source state
attr title "Radio state"
vector 7 Aloha.host[5] radioState:vector ETV
attr enum IDLE=0,TRANSMIT=1
attr recordingmode vector
attr source state
attr title "Radio state"
vector 8 Aloha.host[6] radioState:vector ETV
attr enum IDLE=0,TRANSMIT=1
attr recordingmode vector
attr source state
attr title "Radio state"
vector 9 Aloha.host[7] radioState:vector ETV
attr enum IDLE=0,TRANSMIT=1
attr recordingmode vector
attr source state
attr title "Radio state"
vector 10 Aloha.host[8] radioState:vector ETV
attr enum IDLE=0,TRANSMIT=1
attr recordingmode vector
attr source state
attr title "Radio state"
vector 11 Aloha.host[9] radioState:vector ETV
attr enum IDLE=0,TRANSMIT=1
attr recordingmode vector
attr source state
attr title "Radio state"
vector 12 Aloha.host[10] radioState:vector ETV
attr enum IDLE=0,TRANSMIT=1
attr recordingmode vector
attr source state
attr title "Radio state"
vector 13 Aloha.host[11] radioState:vector ETV
attr enum IDLE=0,TRANSMIT=1
attr recordingmode vector
attr source state
attr title "Radio state"
vector 14 Aloha.host[12] radioState:vector ETV
attr enum IDLE=0,TRANSMIT=1
attr recordingmode vector
attr source state
attr title "Radio state"
vector 15 Aloha.host[13] radioState:vector ETV
attr enum IDLE=0,TRANSMIT=1
attr recordingmode vector
attr source state
attr title "Radio state"
vector 16 Aloha.host[14] radioState:vector ETV
attr enum IDLE=0,TRANSMIT=1
attr recordingmode vector
attr source state
attr title "Radio state"
vector 17 Aloha.host[15] radioState:vector ETV
attr enum IDLE=0,TRANSMIT=1
attr recordingmode vector
attr source state
attr title "Radio state"
vector 18 Aloha.host[16] radioState:vector ETV
attr enum IDLE=0,TRANSMIT=1
attr recordingmode vector
attr source state
attr title "Radio state"
vector 19 Aloha.host[17] radioState:vector ETV
attr enum IDLE=0,TRANSMIT=1
attr recordingmode vector
attr source state
attr title "Radio state"
vector 20 Aloha.host[18] radioState:vector ETV
attr enum IDLE=0,TRANSMIT=1
attr recordingmode vector
attr source state
attr title "Radio state"
vector 21 Aloha.host[19] radioState:vector ETV
attr enum IDLE=0,TRANSMIT=1
attr recordingmode vector
attr source state
attr title "Radio state"
0	0	0	0
0	2	1.054193663938	1
0	4	1.099628690069	2
0	7	1.186923863561	2
0	10	1.286090530228	0
0	12	1.537508239235	1
0	14	1.636674905902	0
0	16	1.926006592796	1
0	18	2.025173259463	0
0	20	2.172353410919	1
0	22	2.271520077586	0
0	24	2.763070639251	1
0	26	2.862237305918	0
0	28	2.893607089564	1
0	30	2.992773756231	0
0	32	3.083185285544	1
0	34	3.182351952211	0
0	36	3.237051858188	1
0	38	3.336218524855	0
0	40	3.34002376659	1
0	42	3.439190433257	0
0	44	3.680160771058	1
0	46	3.779327437725	0
0	48	3.871074501689	1
0	50	3.970241168356	0
0	52	4.246322168127	1
0	54	4.345488834794	0
0	56	5.233615797967	1
0	58	5.332782464634	0
0	60	5.492068995697	1
0	62	5.591235662364	0
0	64	6.224793677264	1
0	66	6.323960343931	0
0	68	6.680952287121	1
0	70	6.780118953788	0
0	72	6.883007475752	1
0	74	6.982174142419	0
0	76	7.044220221917	1
0	78	7.143386888584	0
0	80	7.251089914096	1
0	82	7.350256580763	0
0	84	7.443913151709	1
0	86	7.543079818376	0
0	88	7.802302655777	1
0	90	7.901469322444	0
0	92	8.023687600131	1
0	94	8.122854266798	0
0	96	8.23898141951	1
0	98	8.338148086177	0
0	100	8.411332193998	1
0	102	8.458895697541	2
0	105	8.558062364208	0
0	107	8.626719101033	1
0	109	8.7258857677	0
0	111	8.750355705218	1
0	113	8.849522371885	0
0	115	9.076697077993	1
0	117	9.142095399221	2
0	120	9.241262065888	0
0	122	9.702498185247	1
0	124	9.801664851914	0
0	126	10.47715542174	1
0	128	10.573291763518	2
0	131	10.672458430185	0
0	133	10.82326326368	1
0	135	10.922429930347	0
0	137	10.989464841881	1
0	139	10.994467277117	2
0	142	11.093633943784	0
0	144	11.17580943836	1
0	146	11.274976105027	0
0	148	11.299153200607	1
0	150	11.358408647853	2
0	153	11.45757531452	0
0	155	11.477173520251	1
0	157	11.576340186918	0
0	159	11.69253835743	1
0	161	11.72639562181	2
0	164	11.825562288477	0
0	166	11.854659960158	1
0	168	11.953826626825	0
0	170	12.135177571202	1
0	172	12.188577514818	2
0	175	12.287744181485	0
0	177	13.02192332643	1
0	179	13.050716662869	2
0	182	13.149883329536	0
0	184	13.29137680073	1
0	186	13.390543467397	0
0	188	13.435070171702	1
0	190	13.445932586291	2
0	192	13.488241498776	2
0	196	13.587408165443	0
0	198	13.674956003198	1
0	200	13.745543320299	2
0	203	13.844709986966	0
0	205	13.85070352532	1
0	207	13.949870191987	0
0	209	13.963793880591	1
0	211	14.062960547258	0
0	213	14.552258716283	1
0	215	14.592840526643	2
0	217	14.629741662068	2
0	221	14.728908328735	0
0	223	14.924489343972	1
0	225	15.023656010639	0
0	227	15.603778636094	1
0	229	15.702945302761	0
0	231	16.166984401282	1
0	233	16.218908631457	2
0	236	16.318075298124	0
0	238	16.694580426033	1
0	240	16.7937470927	0
0	242	17.339563722785	1
0	244	17.438730389452	0
0	246	17.574545578925	1
0	248	17.642857034346	2
0	251	17.683101541963	2
0	254	17.78226820863	0
0	256	18.239226348098	1
0	258	18.280367387044	2
0	261	18.379534053711	0
0	263	18.402309812521	1
0	265	18.501476479188	0
0	267	19.055442798817	1
0	269	19.154609465484	0
0	271	19.546204453373	1
0	273	19.555810870008	2
0	276	19.654977536675	0
0	278	19.832800187883	1
0	280	19.93196685455	0
0	282	19.947263596887	1
0	284	20.046430263554	0
0	286	20.193771442212	1
0	288	20.244891962193	2
0	291	20.34405862886	0
0	293	20.421407362215	1
0	295	20.520574028882	0
0	297	20.533603966989	1
0	299	20.632770633656	0
0	301	21.157507296799	1
0	303	21.170353727154	2
0	305	21.211817639771	2
0	307	21.228424500044	2
0	312	21.314345986845	2
0	315	21.413512653512	0
0	317	21.436721530645	1
0	319	21.535888197312	0
0	321	22.558918259716	1
0	323	22.658084926383	0
0	325	23.208654052855	1
0	327	23.307820719522	0
0	329	23.384956531933	1
0	331	23.4841231986	0
0	333	23.732193026235	1
0	335	23.831359692902	0
0	337	23.90482139605	1
0	339	24.003988062717	0
0	341	24.126344012515	1
0	343	24.212916490908	2
0	346	24.312083157575	0
0	348	24.567818231752	1
0	350	24.666984898419	0
0	352	24.864900395928	1
0	354	24.942450382183	2
0	357	25.04161704885	0
0	359	25.545665777349	1
0	361	25.644832444016	0
0	363	25.765015523357	1
0	365	25.850180233873	2
0	368	25.870889256157	2
0	370	25.88886375498	2
0	372	25.909557218694	2
0	377	26.008723885361	0
0	379	26.102796488966	1
0	381	26.201963155633	0
0	383	26.252976696774	1
0	385	26.285923411614	2
0	388	26.385090078281	0
0	390	26.433630804912	1
0	392	26.532797471579	0
0	394	26.977554608105	1
0	396	27.076721274772	0
0	398	27.317887452484	1
0	400	27.417054119151	0
0	402	27.424152251239	1
0	404	27.523318917906	0
0	406	27.788099132047	1
0	408	27.887265798714	0
0	410	29.653079383735	1
0	412	29.752246050402	0
0	414	30.86329818672	1
0	416	30.962464853387	0
0	418	31.200886321442	1
0	420	31.300052988109	0
0	422	31.332416249688	1
0	424	31.347617641278	2
0	427	31.446784307945	0
0	429	31.618756416226	1
0	431	31.717923082893	0
0	433	31.858807092462	1
0	435	31.885923839553	2
0	438	31.98509050622	0
0	440	32.133771455493	1
0	442	32.23293812216	0
0	444	32.694980178123	1
0	446	32.790705686545	2
0	449	32.858421988378	2
0	452	32.957588655045	0
0	454	33.143870523759	1
0	456	33.243037190426	0
0	458	33.353135420626	1
0	460	33.452302087293	0
0	462	33.486389795299	1
0	464	33.585556461966	0
0	466	33.590208161667	1
0	468	33.689374828334	0
0	470	33.730537921207	1
0	472	33.829704587874	0
0	474	34.111459216597	1
0	476	34.210625883264	0
0	478	34.361548203024	1
0	480	34.460714869691	0
0	482	34.48031933877	1
0	484	34.579486005437	0
0	486	34.600460441412	1
0	488	34.699627108079	0
0	490	34.813608757024	1
0	492	34.912775423691	0
0	494	34.923252477735	1
0	496	34.940174130057	2
0	499	35.039340796724	0
0	501	35.053437974534	1
0	503	35.091038624597	2
0	506	35.190205291264	0
0	508	35.261976926245	1
0	510	35.361143592912	0
0	512	35.447208163764	1
0	514	35.509600213081	2
0	517	35.606859293163	2
0	520	35.70602595983	0
0	522	36.284500606687	1
0	524	36.383667273354	0
0	526	36.423910136581	1
0	528	36.523076803248	0
0	530	36.903187688821	1
0	532	37.002354355488	0
0	534	37.217840466541	1
0	536	37.317007133208	0
0	538	37.350691589588	1
0	540	37.449858256255	0
0	542	38.044433554608	1
0	544	38.143600221275	0
0	546	38.974256886795	1
0	548	39.073423553462	0
0	550	39.461617612912	1
0	552	39.464691598993	2
0	554	39.497560607702	2
0	558	39.596727274369	0
0	560	40.228035128601	1
0	562	40.233924947768	2
0	565	40.333091614435	0
0	567	40.523200261885	1
0	569	40.622366928552	0
0	571	40.98413795561	1
0	573	41.083304622277	0
0	575	41.175650375203	1
0	577	41.27481704187	0
0	579	42.423196891907	1
0	581	42.479500044269	2
0	584	42.531134139065	2
0	587	42.630300805732	0
0	589	42.661828671348	1
0	591	42.760995338015	0
0	593	43.102228924516	1
0	595	43.191534194373	2
0	598	43.288940036291	2
0	601	43.388106702958	0
0	603	43.418164062004	1
0	605	43.439388797975	2
0	608	43.538555464642	0
0	610	43.662320560132	1
0	612	43.672167157535	2
0	615	43.771333824202	0
0	617	44.125416471402	1
0	619	44.224583138069	0
0	621	44.241941161464	1
0	623	44.329297065551	2
0	626	44.428463732218	0
0	628	44.487051320008	1
0	630	44.586217986675	0
0	632	45.037459860506	1
0	634	45.136626527173	0
0	636	45.356772906615	1
0	638	45.40409752891	2
0	641	45.484111105881	2
0	644	45.583277772548	0
0	646	46.109126626883	1
0	648	46.20829329355	0
0	650	46.338033240724	1
0	652	46.437199907391	0
0	654	46.589896882661	1
0	656	46.689063549328	0
0	658	46.700210300009	1
0	660	46.799376966676	0
0	662	46.871576393293	1
0	664	46.97074305996	0
0	666	47.06239830392	1
0	668	47.161564970587	0
0	670	47.202293512383	1
0	672	47.30146017905	0
0	674	47.411782538124	1
0	676	47.510949204791	0
0	678	47.8290722528	1
0	680	47.928238919467	0
0	682	48.200984842502	1
0	684	48.300151509169	0
0	686	48.574908855448	1
0	688	48.584856689666	2
0	691	48.684023356333	0
0	693	49.067926624123	1
0	695	49.092392118128	2
0	698	49.191558784795	0
0	700	49.482439790764	1
0	702	49.528702117629	2
0	705	49.627868784296	0
0	707	49.737581961551	1
0	709	49.836748628218	0
0	711	50.161539114812	1
0	713	50.260705781479	0
0	715	50.398473185362	1
0	717	50.409200696261	2
0	720	50.508367362928	0
0	722	50.922220736141	1
0	724	51.021387402808	0
0	726	51.074658513267	1
0	728	51.173825179934	0
0	730	51.931653158311	1
0	732	52.030819824978	0
0	734	52.347127774683	1
0	736	52.358715116822	2
0	739	52.457881783489	0
0	741	52.900703077426	1
0	743	52.999869744093	0
0	745	53.221032698228	1
0	747	53.320199364895	0
0	749	53.728975030503	1
0	751	53.82814169717	0
0	753	54.029567806472	1
0	755	54.128734473139	0
0	757	54.219159565101	1
0	759	54.315120126922	2
0	762	54.414286793589	0
0	764	54.478215720392	1
0	766	54.577382387059	0
0	768	54.803513895411	1
0	770	54.902680562078	0
0	772	55.109218137394	1
0	774	55.208384804061	0
0	776	55.259577971873	1
0	778	55.312539009448	2
0	781	55.411705676115	0
0	783	55.943464862629	1
0	785	56.042631529296	0
0	787	56.069535698168	1
0	789	56.149560267696	2
0	792	56.248726934363	0
0	794	56.765801935347	1
0	796	56.811305749646	2
0	799	56.910472416313	0
0	801	57.193472557401	1
0	803	57.233445635756	2
0	806	57.332612302423	0
0	808	57.435182482755	1
0	810	57.472449069176	2
0	813	57.571615735843	0
0	815	57.639742223532	1
0	817	57.713819161451	2
0	820	57.812985828118	0
0	822	57.970028428058	1
0	824	58.00698625529	2
0	827	58.106152921957	0
0	829	58.206533088457	1
0	831	58.206800679291	2
0	834	58.305967345958	0
0	836	58.365337756728	1
0	838	58.418063773584	2
0	841	58.517230440251	0
0	843	58.889937595614	1
0	845	58.960016254119	2
0	848	59.059182920786	0
0	850	59.111163840623	1
0	852	59.21033050729	0
0	854	59.381891968487	1
0	856	59.481058635154	0
0	858	60.031658972095	1
0	860	60.081827082621	2
0	863	60.180993749288	0
0	865	61.029260989025	1
0	867	61.128427655692	0
0	869	61.344373105074	1
0	871	61.427580818422	2
0	874	61.526747485089	0
0	876	62.37155001403	1
0	878	62.470716680697	0
0	880	62.696884405911	1
0	882	62.796051072578	0
0	884	63.468519698052	1
0	886	63.567686364719	0
0	888	63.63970451982	1
0	890	63.738871186487	0
0	892	63.749835227267	1
0	894	63.784868709186	2
0	896	63.822507470595	2
0	900	63.921674137262	0
0	902	64.176233410657	1
0	904	64.275350962632	2
0	907	64.374517629299	0
0	909	64.456942251957	1
0	911	64.556108918624	0
0	913	64.656736214883	1
0	915	64.75590288155	0
0	917	65.318524545817	1
0	919	65.417691212484	0
0	921	65.887214693076	1
0	923	65.986381359743	0
0	925	66.075248821561	1
0	927	66.168615361984	2
0	930	66.26687203162	2
0	933	66.366038698287	0
0	935	66.830542770993	1
0	937	66.92970943766	0
0	939	66.968427270832	1
0	941	67.067593937499	0
0	943	67.089214704894	1
0	945	67.163969600685	2
0	948	67.263136267352	0
0	950	67.350306797505	1
0	952	67.449473464172	0
0	954	67.792720080201	1
0	956	67.891886746868	0
0	958	67.999697641938	1
0	960	68.03815290547	2
0	963	68.129036477496	2
0	966	68.228203144163	0
0	968	68.451413674671	1
0	970	68.550580341338	0
0	972	68.65781319658	1
0	974	68.756979863247	0
0	976	69.733212146543	1
0	978	69.83237881321	0
0	980	69.934648085478	1
0	982	70.033814752145	0
0	984	70.501212074201	1
0	986	70.600378740868	0
0	988	70.720101932269	1
0	990	70.720428242413	2
0	993	70.81959490908	0
0	995	71.167523889325	1
0	997	71.266690555992	0
0	999	71.655898575763	1
0	1001	71.75506524243	0
0	1003	72.178610893412	1
0	1005	72.277777560079	0
0	1007	72.63445321323	1
0	1009	72.733619879897	0
0	1011	73.056576568044	1
0	1013	73.155743234711	0
0	1015	73.334824511692	1
0	1017	73.433991178359	0
0	1019	74.375429243586	1
0	1021	74.474595910253	0
0	1023	74.6004517367	1
0	1025	74.601658835287	2
0	1027	74.697121142321	2
0	1031	74.796287808988	0
0	1033	74.855647274208	1
0	1035	74.861246602859	2
0	1037	74.905609453901	2
0	1041	75.004776120568	0
0	1043	75.139054285529	1
0	1045	75.148153966938	2
0	1047	75.187220132737	2
0	1051	75.286386799404	0
0	1053	76.317931512745	1
0	1055	76.417098179412	0
0	1057	77.2342932767	1
0	1059	77.283302422573	2
0	1062	77.38246908924	0
0	1064	77.608708034819	1
0	1066	77.707874701486	0
0	1068	77.762138042419	1
0	1070	77.861304709086	0
0	1072	78.53139696685	1
0	1074	78.630563633517	0
0	1076	78.675439816563	1
0	1078	78.77460648323	0
0	1080	78.832647697464	1
0	1082	78.931814364131	0
0	1084	79.309201495863	1
0	1086	79.382098701375	2
0	1089	79.481265368042	0
0	1091	79.5187331909	1
0	1093	79.617899857567	0
0	1095	79.783710334139	1
0	1097	79.882877000806	0
0	1099	79.920558843946	1
0	1101	80.019725510613	0
0	1103	80.047170125847	1
0	1105	80.146336792514	0
0	1107	80.437209920795	1
0	1109	80.536376587462	0
0	1111	80.619810830695	1
0	1113	80.718977497362	0
0	1115	80.918226880723	1
0	1117	81.01739354739	0
0	1119	81.075298070476	1
0	1121	81.174464737143	0
0	1123	81.249356769193	1
0	1125	81.34852343586	0
0	1127	82.498129095818	1
0	1129	82.535006668048	2
0	1132	82.634173334715	0
0	1134	82.843234123193	1
0	1136	82.907065471161	2
0	1139	83.006232137828	0
0	1141	83.783060105182	1
0	1143	83.882226771849	0
0	1145	84.041760104995	1
0	1147	84.140926771662	0
0	1149	84.33959274169	1
0	1151	84.438759408357	0
0	1153	84.606193699798	1
0	1155	84.705360366465	0
0	1157	84.835814469369	1
0	1159	84.875594290115	2
0	1162	84.974760956782	0
0	1164	85.157018017114	1
0	1166	85.242123187679	2
0	1169	85.341289854346	0
0	1171	85.623379058755	1
0	1173	85.722545725422	0
0	1175	86.174454734076	1
0	1177	86.273621400743	0
0	1179	86.561819427438	1
0	1181	86.60530904264	2
0	1184	86.704475709307	0
0	1186	86.797703077156	1
0	1188	86.896869743823	0
0	1190	86.915092686372	1
0	1192	87.014259353039	0
0	1194	87.692373812617	1
0	1196	87.791540479284	0
0	1198	87.994790918927	1
0	1200	88.08806465929	2
0	1203	88.187231325957	0
0	1205	88.708945769837	1
0	1207	88.808112436504	0
0	1209	88.92879303079	1
0	1211	88.979142966059	2
0	1214	89.078309632726	0
0	1216	89.092032688474	1
0	1218	89.15095715821	2
0	1221	89.250123824877	0
0	1223	89.251925825791	1
0	1225	89.319886745765	2
0	1228	89.419053412432	0
0	1230	89.660833666499	1
0	1232	89.760000333166	0
0	1234	89.763033165881	1
0	1236	89.769318432159	2
0	1239	89.868485098826	0
0	1241	90.464436921632	1
0	1243	90.509298467436	2
0	1246	90.608465134103	0
0	1248	90.96156045297	1
0	1250	90.978450781656	2
0	1252	90.99392939245	2
0	1254	91.01602636787	2
0	1259	91.115193034537	0
0	1261	91.554550598053	1
0	1263	91.568300969636	2
0	1265	91.5848056133	2
0	1269	91.683972279967	0
0	1271	92.085554026898	1
0	1273	92.184720693565	0
0	1275	92.378354727801	1
0	1277	92.412677508113	2
0	1280	92.51184417478	0
0	1282	92.547730094793	1
0	1284	92.582476059429	2
0	1287	92.681642726096	0
0	1289	92.909741726812	1
0	1291	93.008908393479	0
0	1293	93.261335786703	1
0	1295	93.36050245337	0
0	1297	93.366320325663	1
0	1299	93.367797857444	2
0	1302	93.466964524111	0
0	1304	93.483220639001	1
0	1306	93.582387305668	0
0	1308	93.582823990472	1
0	1310	93.681990657139	0
0	1312	93.920324756048	1
0	1314	93.976250060991	2
0	1316	93.996308975033	2
0	1320	94.0954756417	0
0	1322	94.295158094311	1
0	1324	94.394324760978	0
0	1326	95.425845862902	1
0	1328	95.478836854236	2
0	1331	95.578003520903	0
0	1333	95.908790342624	1
0	1335	96.007957009291	0
0	1337	96.01218040906	1
0	1339	96.111347075727	0
0	1341	96.776544599407	1
0	1343	96.875711266074	0
0	1345	97.147256264366	1
0	1347	97.24335757105	2
0	1350	97.277599240803	2
0	1353	97.37676590747	0
0	1355	98.358773420704	1
0	1357	98.457940087371	0
0	1359	99.144490204921	1
0	1361	99.167646445584	2
0	1364	99.266813112251	0
0	1366	99.465504079037	1
0	1368	99.564670745704	0
0	1370	99.572023444099	1
0	1372	99.671190110766	0
0	1374	99.914701485064	1
0	1376	99.9183323151	2
0	1378	99.995129973275	2
0	1382	100.094296639942	0
0	1384	100.555338079933	1
0	1386	100.6545047466	0
0	1388	100.701721780545	1
0	1390	100.73083304222	2
0	1393	100.829999708887	0
0	1395	100.955354390714	1
0	1397	101.054521057381	0
0	1399	101.100824824839	1
0	1401	101.199991491506	0
0	1403	101.486199155431	1
0	1405	101.585365822098	0
0	1407	101.798769661857	1
0	1409	101.814570143423	2
0	1412	101.91373681009	0
0	1414	101.943313846483	1
0	1416	102.009049328735	2
0	1419	102.108215995402	0
0	1421	102.20438482727	1
0	1423	102.24989167071	2
0	1426	102.349058337377	0
0	1428	102.4607168104	1
0	1430	102.559883477067	0
0	1432	102.698881951377	1
0	1434	102.798048618044	0
0	1436	102.824253579417	1
0	1438	102.895726477792	2
0	1441	102.994893144459	0
0	1443	103.265321987163	1
0	1445	103.312731116969	2
0	1447	103.31470395236	2
0	1451	103.413870619027	0
0	1453	103.787067716805	1
0	1455	103.861849609076	2
0	1458	103.961016275743	0
0	1460	104.339979590406	1
0	1462	104.408060539499	2
0	1465	104.48730285402	2
0	1468	104.586469520687	0
0	1470	105.103122072971	1
0	1472	105.202288739638	0
0	1474	105.214901180413	1
0	1476	105.272447631038	2
0	1479	105.371614297705	0
0	1481	105.440052541012	1
0	1483	105.539219207679	0
0	1485	105.70134168603	1
0	1487	105.800508352697	0
0	1489	105.829886588711	1
0	1491	105.876326911444	2
0	1494	105.975493578111	0
0	1496	107.361355015398	1
0	1498	107.460521682065	0
0	1500	107.485204891545	1
0	1502	107.496405861292	2
0	1505	107.595572527959	0
0	1507	107.680339182156	1
0	1509	107.779505848823	0
0	1511	107.827617961921	1
0	1513	107.926784628588	0
0	1515	108.144641436536	1
0	1517	108.194069630551	2
0	1519	108.224750628979	2
0	1522	108.244970920235	2
0	1524	108.279179949471	2
0	1529	108.378346616138	0
0	1531	108.461079702067	1
0	1533	108.560246368734	0
0	1535	108.857073566355	1
0	1537	108.956240233022	0
0	1539	108.993199108126	1
0	1541	109.009727585829	2
0	1543	109.035423647892	2
0	1547	109.127721167509	2
0	1550	109.226887834176	0
0	1552	110.280210795735	1
0	1554	110.379377462402	0
0	1556	110.382798742696	1
0	1558	110.481965409363	0
0	1560	110.494952802712	1
0	1562	110.594119469379	0
0	1564	110.791089158677	1
0	1566	110.872229347718	2
0	1569	110.971396014385	0
0	1571	111.287317396169	1
0	1573	111.386484062836	0
0	1575	111.397229063212	1
0	1577	111.496395729879	0
0	1579	111.603682432096	1
0	1581	111.702849098763	0
0	1583	112.183013980743	1
0	1585	112.28218064741	0
0	1587	112.574347497308	1
0	1589	112.592690970683	2
0	1592	112.69185763735	0
0	1594	113.769922433713	1
0	1596	113.776528464336	2
0	1599	113.875695131003	0
0	1601	114.043982523695	1
0	1603	114.143149190362	0
0	1605	114.244893416059	1
0	1607	114.31614204731	2
0	1610	114.415308713977	0
0	1612	114.706756805013	1
0	1614	114.80592347168	0
0	1616	114.819311445337	1
0	1618	114.822705066132	2
0	1621	114.921871732799	0
0	1623	115.104689307187	1
0	1625	115.203855973854	0
0	1627	115.25091940339	1
0	1629	115.350086070057	0
0	1631	115.671665909947	1
0	1633	115.707424786918	2
0	1636	115.806591453585	0
0	1638	116.026702494439	1
0	1640	116.112784972802	2
0	1643	116.211951639469	0
0	1645	116.369059907971	1
0	1647	116.468226574638	0
0	1649	116.577802973469	1
0	1651	116.662080924456	2
0	1654	116.761247591123	0
0	1656	117.029507520106	1
0	1658	117.083762018954	2
0	1661	117.182928685621	0
0	1663	117.43396425023	1
0	1665	117.533130916897	0
0	1667	117.63879785133	1
0	1669	117.737964517997	0
0	1671	117.80752532674	1
0	1673	117.869152178493	2
0	1676	117.96831884516	0
0	1678	118.16829882553	1
0	1680	118.267465492197	0
0	1682	118.863503864229	1
0	1684	118.933380519699	2
0	1687	119.032547186366	0
0	1689	119.079689316392	1
0	1691	119.178855983059	0
0	1693	119.374885665506	1
0	1695	119.474052332173	0
0	1697	119.627543864969	1
0	1699	119.726710531636	0
0	1701	119.772809583397	1
0	1703	119.871976250064	0
0	1705	120.410893807495	1
0	1707	120.415205853195	2
0	1710	120.514372519862	0
0	1712	120.646828000951	1
0	1714	120.745994667618	0
0	1716	121.074669058682	1
0	1718	121.173835725349	0
0	1720	121.305801016015	1
0	1722	121.373838605868	2
0	1725	121.432301013508	2
0	1728	121.531467680175	0
0	1730	121.69065905779	1
0	1732	121.789825724457	0
0	1734	122.224335013674	1
0	1736	122.306525476452	2
0	1739	122.405692143119	0
0	1741	122.413584648936	1
0	1743	122.512751315603	0
0	1745	122.87913114966	1
0	1747	122.935820504252	2
0	1750	123.034987170919	0
0	1752	123.124938049368	1
0	1754	123.188215072924	2
0	1757	123.287381739591	0
0	1759	123.317117522194	1
0	1761	123.416284188861	0
0	1763	123.822673863413	1
0	1765	123.92184053008	0
0	1767	124.009098248765	1
0	1769	124.108264915432	0
0	1771	124.752668962799	1
0	1773	124.754558808812	2
0	1776	124.853725475479	0
0	1778	125.293790764747	1
0	1780	125.392957431414	0
0	1782	125.411129086298	1
0	1784	125.510295752965	0
0	1786	126.023939975767	1
0	1788	126.123106642434	0
0	1790	126.5423730691	1
0	1792	126.641539735767	0
0	1794	126.705366725116	1
0	1796	126.804533391783	0
0	1798	127.022471820363	1
0	1800	127.025211617543	2
0	1803	127.12437828421	0
0	1805	127.536940654643	1
0	1807	127.63610732131	0
0	1809	127.661162459804	1
0	1811	127.760329126471	0
0	1813	127.792374116793	1
0	1815	127.80234382952	2
0	1818	127.901510496187	0
0	1820	128.114637073147	1
0	1822	128.213803739814	0
0	1824	128.239867426151	1
0	1826	128.339034092818	0
0	1828	128.547322737287	1
0	1830	128.646489403954	0
0	1832	128.657544332712	1
0	1834	128.686141650149	2
0	1837	128.785308316816	0
0	1839	129.262835596326	1
0	1841	129.362002262993	0
0	1843	129.508868070926	1
0	1845	129.608034737593	0
0	1847	129.809624510728	1
0	1849	129.816258852818	2
0	1852	129.915425519485	0
0	1854	130.037056434702	1
0	1856	130.10665784685	2
0	1858	130.128509933991	2
0	1862	130.227676600658	0
0	1864	130.529336734812	1
0	1866	130.628503401479	0
0	1868	130.696601157751	1
0	1870	130.795767824418	0
0	1872	130.887938330123	1
0	1874	130.927084266447	2
0	1877	131.026250933114	0
0	1879	131.114346625503	1
0	1881	131.136707470459	2
0	1884	131.235874137126	0
0	1886	131.361580685071	1
0	1888	131.460747351738	0
0	1890	131.80820519457	1
0	1892	131.865572266492	2
0	1895	131.964738933159	0
0	1897	132.133228512205	1
0	1899	132.232395178872	0
0	1901	132.442259686691	1
0	1903	132.515174598324	2
0	1906	132.614341264991	0
0	1908	133.170633419429	1
0	1910	133.269800086096	0
0	1912	133.314537231414	1
0	1914	133.413703898081	0
0	1916	133.431040225267	1
0	1918	133.530206891934	0
0	1920	133.65537203879	1
0	1922	133.697441037438	2
0	1925	133.796607704105	0
0	1927	133.874923874345	1
0	1929	133.974090541012	0
0	1931	134.220867764627	1
0	1933	134.320034431294	0
0	1935	134.636633563766	1
0	1937	134.735800230433	0
0	1939	134.930701311382	1
0	1941	135.029867978049	0
0	1943	135.055905492584	1
0	1945	135.155072159251	0
0	1947	135.501449695574	1
0	1949	135.524416917502	2
0	1952	135.623583584169	0
0	1954	135.925718452761	1
0	1956	136.024885119428	0
0	1958	136.231797143948	1
0	1960	136.323600395626	2
0	1963	136.409909086352	2
0	1966	136.509075753019	0
0	1968	136.540500477308	1
0	1970	136.639667143975	0
0	1972	136.837114247026	1
0	1974	136.936280913693	0
0	1976	137.530805668626	1
0	1978	137.629972335293	0
0	1980	137.958721280535	1
0	1982	138.057887947202	0
0	1984	138.133293994078	1
0	1986	138.232460660745	0
0	1988	138.347217467	1
0	1990	138.446384133667	0
0	1992	138.651561053939	1
0	1994	138.702809450872	2
0	1997	138.801976117539	0
0	1999	139.284141984937	1
0	2001	139.360219916043	2
0	2004	139.45938658271	0
0	2006	139.460126736643	1
0	2008	139.55929340331	0
0	2010	139.574103210309	1
0	2012	139.586843234584	2
0	2015	139.686009901251	0
0	2017	139.785690437794	1
0	2019	139.884857104461	0
0	2021	140.292913224492	1
0	2023	140.392079891159	0
0	2025	140.671154829563	1
0	2027	140.77032149623	0
0	2029	140.940879006	1
0	2031	140.954454881342	2
0	2034	141.053621548009	0
0	2036	141.33929398164	1
0	2038	141.438460648307	0
0	2040	141.784826300176	1
0	2042	141.786718809797	2
0	2044	141.789870362244	2
0	2048	141.889037028911	0
0	2050	141.963326002932	1
0	2052	142.062492669599	0
0	2054	142.157895573466	1
0	2056	142.191978073777	2
0	2059	142.291144740444	0
0	2061	142.550590617524	1
0	2063	142.649757284191	0
0	2065	142.752936884319	1
0	2067	142.852103550986	0
0	2069	143.239622970049	1
0	2071	143.333552326206	2
0	2074	143.432718992873	0
0	2076	143.588093004103	1
0	2078	143.68725967077	0
0	2080	143.786699127858	1
0	2082	143.876544794554	2
0	2085	143.975711461221	0
0	2087	144.156353264486	1
0	2089	144.255519931153	0
0	2091	144.321252036592	1
0	2093	144.420418703259	0
0	2095	144.862802276382	1
0	2097	144.961968943049	0
0	2099	145.077624713384	1
0	2101	145.16489044057	2
0	2104	145.264057107237	0
0	2106	145.692458890295	1
0	2108	145.791625556962	0
0	2110	145.793389855093	1
0	2112	145.849430550963	2
0	2115	145.94859721763	0
0	2117	146.131929137709	1
0	2119	146.231095804376	0
0	2121	146.475908328616	1
0	2123	146.536839867988	2
0	2125	146.55729235262	2
0	2129	146.656459019287	0
0	2131	146.955740676824	1
0	2133	147.054907343491	0
0	2135	147.120306742483	1
0	2137	147.21947340915	0
0	2139	147.625707078801	1
0	2141	147.707874778063	2
0	2144	147.80704144473	0
0	2146	148.268122629474	1
0	2148	148.289167298048	2
0	2151	148.388333964715	0
0	2153	149.311266208753	1
0	2155	149.371051243572	2
0	2158	149.470217910239	0
0	2160	149.566318751524	1
0	2162	149.588487074444	2
0	2165	149.687653741111	0
0	2167	150.822108370287	1
0	2169	150.860453437122	2
0	2172	150.959620103789	0
0	2174	151.166583601694	1
0	2176	151.265750268361	0
0	2178	151.309995458825	1
0	2180	151.409162125492	0
0	2182	151.668639697904	1
0	2184	151.677694168475	2
0	2187	151.776860835142	0
0	2189	152.218876387682	1
0	2191	152.318043054349	0
0	2193	152.418528449216	1
0	2195	152.500455166842	2
0	2198	152.599621833509	0
0	2200	152.783512762075	1
0	2202	152.789508503644	2
0	2205	152.888675170311	0
0	2207	153.069163816112	1
0	2209	153.168330482779	0
0	2211	153.840140889936	1
0	2213	153.871368065044	2
0	2216	153.960728237762	2
0	2219	154.059894904429	0
0	2221	154.139996033692	1
0	2223	154.239162700359	0
0	2225	154.407162566233	1
0	2227	154.5063292329	0
0	2229	154.798142805458	1
0	2231	154.897309472125	0
0	2233	154.982694950114	1
0	2235	155.061977300679	2
0	2238	155.100138474507	2
0	2241	155.199305141174	0
0	2243	155.215899090848	1
0	2245	155.252367183497	2
0	2248	155.351533850164	0
0	2250	155.680815593831	1
0	2252	155.779982260498	0
0	2254	156.02733636764	1
0	2256	156.055922988812	2
0	2259	156.155089655479	0
0	2261	156.198111433348	1
0	2263	156.297278100015	0
0	2265	156.445923593918	1
0	2267	156.545090260585	0
0	2269	156.581005142152	1