version 3
run PureAlohaExperiment-10-20250302-16:22:00-14228
attr configname PureAlohaExperiment
attr datetime 20250302-16:22:00
attr datetimef 20250302-162200
attr experiment PureAlohaExperiment
attr inifile omnetpp.ini
attr iterationvars "$numHosts=15, $iaMean=4"
attr iterationvarsd numHosts=15/iaMean=4
attr iterationvarsf numHosts=15,iaMean=4-
attr measurement "$numHosts=15, $iaMean=4"
attr network Aloha
attr processid 14228
attr repetition 0
attr replication #0
attr resultdir results
attr runnumber 10
attr seedset 10
itervar iaMean 4
itervar numHosts 15
config description "Channel utilization in the function of packet generation frequency"
config repeat 1
config sim-time-limit 90min
config Aloha.numHosts 15
config Aloha.host[*].iaTime exponential(4s)
config network Aloha
config Aloha.numHosts 20
config Aloha.slotTime 0s
config Aloha.txRate 9.6kbps
config Aloha.host[*].pkLenBits 952b
config **.x "uniform(0m, 1000m)"
config **.y "uniform(0m, 1000m)"
config **.animationHoldTimeOnCollision 0s
config **.idleAnimationSpeed 1
config **.transmissionEdgeAnimationSpeed 1e-6
config **.midTransmissionAnimationSpeed 1e-1

vector 0 Aloha.server serverChannelState:vector ETV
attr enum IDLE=0,TRANSMISSION=1,COLLISION=2
attr recordingmode vector
attr source channelState
attr title "Channel state"
vector 1 Aloha.server channelUtilization:vector ETV
attr interpolationmode linear
attr recordingmode vector
attr source timeavg(receive)
attr title "channel utilization"
vector 2 Aloha.host[0] radioState:vector ETV
attr enum IDLE=0,TRANSMIT=1
attr recordingmode vector
attr source state
attr title "Radio state"
vector 3 Aloha.host[1] radioState:vector ETV
attr enum IDLE=0,TRANSMIT=1
attr recordingmode vector
attr source state
attr title "Radio state"
vector 4 Aloha.host[2] radioState:vector ETV
attr enum IDLE=0,TRANSMIT=1
attr recordingmode vector
attr source state
attr title "Radio state"
vector 5 Aloha.host[3] radioState:vector ETV
attr enum IDLE=0,TRANSMIT=1
attr recordingmode vector
attr source state
attr title "Radio state"
vector 6 Aloha.host[4] radioState:vector ETV
attr enum IDLE=0,TRANSMIT=1
attr recordingmode vector
attr source state
attr title "Radio state"
vector 7 Aloha.host[5] radioState:vector ETV
attr enum IDLE=0,TRANSMIT=1
attr recordingmode vector
attr source state
attr title "Radio state"
vector 8 Aloha.host[6] radioState:vector ETV
attr enum IDLE=0,TRANSMIT=1
attr recordingmode vector
attr source state
attr title "Radio state"
vector 9 Aloha.host[7] radioState:vector ETV
attr enum IDLE=0,TRANSMIT=1
attr recordingmode vector
attr source state
attr title "Radio state"
vector 10 Aloha.host[8] radioState:vector ETV
attr enum IDLE=0,TRANSMIT=1
attr recordingmode vector
attr source state
attr title "Radio state"
vector 11 Aloha.host[9] radioState:vector ETV
attr enum IDLE=0,TRANSMIT=1
attr recordingmode vector
attr source state
attr title "Radio state"
vector 12 Aloha.host[10] radioState:vector ETV
attr enum IDLE=0,TRANSMIT=1
attr recordingmode vector
attr source state
attr title "Radio state"
vector 13 Aloha.host[11] radioState:vector ETV
attr enum IDLE=0,TRANSMIT=1
attr recordingmode vector
attr source state
attr title "Radio state"
vector 14 Aloha.host[12] radioState:vector ETV
attr enum IDLE=0,TRANSMIT=1
attr recordingmode vector
attr source state
attr title "Radio state"
vector 15 Aloha.host[13] radioState:vector ETV
attr enum IDLE=0,TRANSMIT=1
attr recordingmode vector
attr source state
attr title "Radio state"
vector 16 Aloha.host[14] radioState:vector ETV
attr enum IDLE=0,TRANSMIT=1
attr recordingmode vector
attr source state
attr title "Radio state"
0	0	0	0
0	2	0.563760041719	1
0	4	0.613399390334	2
0	7	0.712566057001	0
0	9	1.380546390382	1
0	11	1.469587396411	2
0	14	1.568754063078	0
0	16	1.869411599477	1
0	18	1.968578266144	0
0	20	2.135473458959	1
0	22	2.234640125626	0
0	24	2.41410079657	1
0	26	2.513267463237	0
0	28	3.044955625812	1
0	30	3.113785124348	2
0	32	3.128303843758	2
0	36	3.227470510425	0
0	38	3.484197217712	1
0	40	3.507332157376	2
0	43	3.606498824043	0
0	45	3.815762938613	1
0	47	3.845497774427	2
0	49	3.847203697189	2
0	53	3.946370363856	0
0	55	3.993802612753	1
0	57	4.09296927942	0
0	59	4.485072460874	1
0	61	4.584239127541	0
0	63	5.015115049499	1
0	65	5.114281716166	0
0	67	5.117020117321	1
0	69	5.199521456561	2
0	72	5.298688123228	0
0	74	6.023222543364	1
0	76	6.03346750998	2
0	78	6.08153958843	2
0	82	6.180706255097	0
0	84	6.511896526348	1
0	86	6.611063193015	0
0	88	6.829350211718	1
0	90	6.836846982784	2
0	93	6.936013649451	0
0	95	7.042595863617	1
0	97	7.141762530284	0
0	99	7.282064774964	1
0	101	7.381231441631	0
0	103	7.420096367288	1
0	105	7.43130085115	2
0	107	7.46164054339	2
0	111	7.560807210057	0
0	113	7.722593867021	1
0	115	7.815585742358	2
0	118	7.914752409025	0
0	120	8.041765297849	1
0	122	8.140931964516	0
0	124	8.370654771979	1
0	126	8.402332521865	2
0	128	8.434978270066	2
0	131	8.476404235483	2
0	135	8.57557090215	0
0	137	9.047073181899	1
0	139	9.13177754224	2
0	142	9.230944208907	0
0	144	9.403116030216	1
0	146	9.462886263617	2
0	149	9.562052930284	0
0	151	9.715374791835	1
0	153	9.814541458502	0
0	155	9.879991566844	1
0	157	9.979158233511	0
0	159	9.993142918574	1
0	161	10.092309585241	0
0	163	10.488268449723	1
0	165	10.58743511639	0
0	167	11.295367630077	1
0	169	11.29750975429	2
0	171	11.31356365354	2
0	175	11.412730320207	0
0	177	11.758830762145	1
0	179	11.857997428812	0
0	181	11.991125218001	1
0	183	12.090291884668	0
0	185	13.433200858859	1
0	187	13.532367525526	0
0	189	13.732935744533	1
0	191	13.733368208801	2
0	194	13.832534875468	0
0	196	14.253737895026	1
0	198	14.352904561693	0
0	200	14.438150824886	1
0	202	14.537317491553	0
0	204	14.610254946895	1
0	206	14.686460871549	2
0	209	14.785627538216	0
0	211	14.929799658543	1
0	213	14.971048377908	2
0	216	15.070215044575	0
0	218	15.189723876672	1
0	220	15.272410161131	2
0	223	15.3448797699	2
0	226	15.444046436567	0
0	228	15.599398682443	1
0	230	15.69856534911	0
0	232	15.725715697495	1
0	234	15.757202610472	2
0	237	15.826339877842	2
0	240	15.925506544509	0
0	242	16.6372042383	1
0	244	16.736370904967	0
0	246	17.006401509477	1
0	248	17.105568176144	0
0	250	17.310353321298	1
0	252	17.409519987965	0
0	254	17.687287897892	1
0	256	17.786454564559	0
0	258	18.118195756792	1
0	260	18.217362423459	0
0	262	18.434043229892	1
0	264	18.533209896559	0
0	266	19.063863414827	1
0	268	19.163030081494	0
0	270	19.173834974334	1
0	272	19.273001641001	0
0	274	19.284501808719	1
0	276	19.375426156632	2
0	279	19.474592823299	0
0	281	19.592807635582	1
0	283	19.629717521456	2
0	286	19.728884188123	0
0	288	20.011146775624	1
0	290	20.110313442291	0
0	292	20.644067136666	1
0	294	20.743233803333	0
0	296	20.752872459555	1
0	298	20.852039126222	0
0	300	21.012335574491	1
0	302	21.111502241158	0
0	304	21.297445453665	1
0	306	21.396612120332	0
0	308	21.593057789865	1
0	310	21.669467108522	2
0	313	21.768633775189	0
0	315	22.100478348316	1
0	317	22.173763657723	2
0	320	22.235374353306	2
0	323	22.334541019973	0
0	325	22.430368371872	1
0	327	22.529535038539	0
0	329	22.532270183188	1
0	331	22.631436849855	0
0	333	22.751045013353	1
0	335	22.80199549622	2
0	338	22.901162162887	0
0	340	23.16418521069	1
0	342	23.263351877357	0
0	344	23.406260625651	1
0	346	23.426469903505	2
0	349	23.525636570172	0
0	351	23.538501928935	1
0	353	23.637668595602	0
0	355	23.678670975572	1
0	357	23.730951957694	2
0	360	23.830118624361	0
0	362	23.869209923087	1
0	364	23.968376589754	0
0	366	24.135742007366	1
0	368	24.234908674033	0
0	370	24.295025533115	1
0	372	24.394192199782	0
0	374	24.407144939414	1
0	376	24.413263661611	2
0	379	24.512430328278	0
0	381	24.688644814336	1
0	383	24.721992181723	2
0	386	24.82115884839	0
0	388	24.849031178929	1
0	390	24.948197845596	0
0	392	25.290756420941	1
0	394	25.389923087608	0
0	396	25.568339239784	1
0	398	25.667505906451	0
0	400	25.770550176926	1
0	402	25.847013913497	2
0	405	25.946180580164	0
0	407	26.094907703347	1
0	409	26.194074370014	0
0	411	26.946263106805	1
0	413	27.045429773472	0
0	415	27.246845255347	1
0	417	27.346011922014	0
0	419	27.675213363613	1
0	421	27.715810790773	2
0	424	27.81497745744	0
0	426	28.00515143699	1
0	428	28.016183082639	2
0	431	28.115349749306	0
0	433	28.200591779389	1
0	435	28.299758446056	0
0	437	28.355841546867	1
0	439	28.455008213534	0
0	441	28.635266714762	1
0	443	28.682400888321	2
0	445	28.708913782481	2
0	449	28.796090348435	2
0	452	28.895257015102	0
0	454	28.99816871943	1
0	456	29.097335386097	0
0	458	29.254213640065	1
0	460	29.353380306732	0
0	462	29.671423096831	1
0	464	29.770589763498	0
0	466	30.065978410603	1
0	468	30.16514507727	0
0	470	30.213249345296	1
0	472	30.312416011963	0
0	474	30.313506272675	1
0	476	30.412672939342	0
0	478	30.696776609416	1
0	480	30.795943276083	0
0	482	30.797618839041	1
0	484	30.896785505708	0
0	486	31.067342989984	1
0	488	31.152766213369	2
0	491	31.251932880036	0
0	493	31.273833071025	1
0	495	31.372999737692	0
0	497	31.387118315857	1
0	499	31.486284982524	0
0	501	31.63226309667	1
0	503	31.731429763337	0
0	505	31.75893747448	1
0	507	31.858104141147	0
0	509	31.933048435371	1
0	511	32.012464392256	2
0	514	32.111631058923	0
0	516	32.123736417553	1
0	518	32.22290308422	0
0	520	32.337400286583	1
0	522	32.43656695325	0
0	524	32.872040629897	1
0	526	32.971207296564	0
0	528	33.062175024241	1
0	530	33.161341690908	0
0	532	33.299386407691	1
0	534	33.398553074358	0
0	536	33.424831463598	1
0	538	33.523998130265	0
0	540	33.67463906848	1
0	542	33.773805735147	0
0	544	33.83036866137	1
0	546	33.929535328037	0
0	548	33.996630294488	1
0	550	34.095796961155	0
0	552	34.096858473976	1
0	554	34.196025140643	0
0	556	34.221704255571	1
0	558	34.231087448856	2
0	560	34.287823656073	2
0	564	34.38699032274	0
0	566	34.649243148495	1
0	568	34.748409815162	0
0	570	35.166330577191	1
0	572	35.265497243858	0
0	574	35.655313997498	1
0	576	35.728527969591	2
0	579	35.758084736372	2
0	582	35.857251403039	0
0	584	35.894514294963	1
0	586	35.99368096163	0
0	588	36.064992131529	1
0	590	36.139358762218	2
0	593	36.238525428885	0
0	595	36.254340442404	1
0	597	36.353507109071	0
0	599	36.879674655041	1
0	601	36.892247679305	2
0	604	36.991414345972	0
0	606	37.264439420374	1
0	608	37.363606087041	0
0	610	37.456970266114	1
0	612	37.556136932781	0
0	614	37.639160089146	1
0	616	37.738326755813	0
0	618	38.200703104694	1
0	620	38.299869771361	0
0	622	38.451069425476	1
0	624	38.550236092143	0
0	626	38.662606470058	1
0	628	38.761773136725	0
0	630	39.96563301199	1
0	632	40.064799678657	0
0	634	40.277267900023	1
0	636	40.37643456669	0
0	638	40.488946209261	1
0	640	40.503958195525	2
0	643	40.603124862192	0
0	645	40.699381331343	1
0	647	40.79854799801	0
0	649	41.024610228366	1
0	651	41.083906492817	2
0	654	41.183073159484	0
0	656	41.30152815218	1
0	658	41.400694818847	0
0	660	41.541971467802	1
0	662	41.641138134469	0
0	664	42.028281347299	1
0	666	42.063366800825	2
0	669	42.162533467492	0
0	671	42.44561457511	1
0	673	42.544781241777	0
0	675	42.751966184081	1
0	677	42.821024032902	2
0	679	42.84161416414	2
0	683	42.940780830807	0
0	685	43.084442356379	1
0	687	43.183609023046	0
0	689	43.449260507652	1
0	691	43.496279005366	2
0	693	43.543352290283	2
0	697	43.641051621602	2
0	700	43.689468725212	2
0	703	43.7577465556	2
0	706	43.80259978217	2
0	709	43.901766448837	0
0	711	43.996276325296	1
0	713	44.095442991963	0
0	715	44.383900843207	1
0	717	44.483067509874	0
0	719	44.494748892254	1
0	721	44.569037282942	2
0	724	44.668203949609	0
0	726	44.931195898381	1
0	728	45.030362565048	0
0	730	45.082982396446	1
0	732	45.182149063113	0
0	734	45.255237891426	1
0	736	45.354404558093	0
0	738	45.482497991542	1
0	740	45.486662378524	2
0	742	45.543807047333	2
0	746	45.642973714	0
0	748	45.675734023881	1
0	750	45.774900690548	0
0	752	45.877590939968	1
0	754	45.976757606635	0
0	756	46.068943243391	1
0	758	46.168109910058	0
0	760	46.408957884947	1
0	762	46.508124551614	0
0	764	46.584390364498	1
0	766	46.670646472523	2
0	769	46.76981313919	0
0	771	46.807002153768	1
0	773	46.906168820435	0
0	775	47.497091421462	1
0	777	47.530260971742	2
0	780	47.629427638409	0
0	782	47.828828164168	1
0	784	47.927994830835	0
0	786	48.123722012547	1
0	788	48.222888679214	0
0	790	48.542673512966	1
0	792	48.627107003208	2
0	795	48.726273669875	0
0	797	49.366223834251	1
0	799	49.422658203644	2
0	802	49.521824870311	0
0	804	50.179232431313	1
0	806	50.27839909798	0
0	808	50.375606809588	1
0	810	50.474773476255	0
0	812	50.550557085087	1
0	814	50.649723751754	0
0	816	50.814152715734	1
0	818	50.845945663193	2
0	821	50.930944349061	2
0	824	51.030111015728	0
0	826	51.049531585796	1
0	828	51.148698252463	0
0	830	51.419663670287	1
0	832	51.509461930655	2
0	835	51.608628597322	0
0	837	51.853387482481	1
0	839	51.952554149148	0
0	841	52.39603375299	1
0	843	52.420383520199	2
0	846	52.519550186866	0
0	848	52.579436332816	1
0	850	52.60569515789	2
0	852	52.639438083551	2
0	856	52.738604750218	0
0	858	53.086293167758	1
0	860	53.185459834425	0
0	862	53.267589509722	1
0	864	53.366756176389	0
0	866	54.227956999423	1
0	868	54.32712366609	0
0	870	54.441422906122	1
0	872	54.540589572789	0
0	874	54.824997912302	1
0	876	54.8645910764	2
0	879	54.963757743067	0
0	881	55.002293580463	1
0	883	55.10146024713	0
0	885	55.11860338783	1
0	887	55.217770054497	0
0	889	55.277978073742	1
0	891	55.377144740409	0
0	893	56.589615669322	1
0	895	56.688782335989	0
0	897	56.81457485951	1
0	899	56.913741526177	0
0	901	58.133540809482	1
0	903	58.222269785976	2
0	906	58.321436452643	0
0	908	58.88730822751	1
0	910	58.964616725281	2
0	913	59.063783391948	0
0	915	59.067873917914	1
0	917	59.078212908178	2
0	920	59.177379574845	0
0	922	59.679821129245	1
0	924	59.778987795912	0
0	926	60.59845506883	1
0	928	60.603322071926	2
0	930	60.60338520695	2
0	934	60.702551873617	0
0	936	60.854107929195	1
0	938	60.953274595862	0
0	940	61.129460722496	1
0	942	61.139648869015	2
0	945	61.238815535682	0
0	947	61.301401791307	1
0	949	61.400568457974	0
0	951	61.410258472746	1
0	953	61.509425139413	0
0	955	61.849405860228	1
0	957	61.948572526895	0
0	959	61.955684527635	1
0	961	62.003959512703	2
0	963	62.01471080379	2
0	967	62.113877470457	0
0	969	62.48083809168	1
0	971	62.519400415926	2
0	974	62.618567082593	0
0	976	62.838850780092	1
0	978	62.938017446759	0
0	980	63.019007105555	1
0	982	63.067986818477	2
0	985	63.167153485144	0
0	987	63.383938329014	1
0	989	63.483104995681	0
0	991	63.494660890645	1
0	993	63.593827557312	0
0	995	63.912623499884	1
0	997	64.011790166551	0
0	999	64.229379466447	1
0	1001	64.328546133114	0
0	1003	64.328762897647	1
0	1005	64.427929564314	0
0	1007	64.476916322798	1
0	1009	64.554493701474	2
0	1012	64.62035517817	2
0	1015	64.719521844837	0
0	1017	64.872646391767	1
0	1019	64.971813058434	0
0	1021	65.479724717375	1
0	1023	65.578891384042	0
0	1025	65.703553284936	1
0	1027	65.802719951603	0
0	1029	65.979443898678	1
0	1031	66.078610565345	0
0	1033	66.268816522511	1
0	1035	66.281803852484	2
0	1038	66.380970519151	0
0	1040	66.620189014944	1
0	1042	66.719355681611	0
0	1044	66.727187226939	1
0	1046	66.826353893606	0
0	1048	67.040099363117	1
0	1050	67.139266029784	0
0	1052	67.291475951869	1
0	1054	67.390642618536	0
0	1056	67.953439268023	1
0	1058	68.05260593469	0
0	1060	68.289387608948	1
0	1062	68.388554275615	0
0	1064	68.492604387405	1
0	1066	68.591771054072	0
0	1068	68.686615001026	1
0	1070	68.785781667693	0
0	1072	68.786398056981	1
0	1074	68.885564723648	0
0	1076	69.019131570858	1
0	1078	69.076650406367	2
0	1080	69.111810477815	2
0	1083	69.124595648781	2
0	1087	69.223762315448	0
0	1089	69.259161342403	1
0	1091	69.335913605021	2
0	1094	69.435080271688	0
0	1096	69.810232922815	1
0	1098	69.909399589482	0
0	1100	70.085764148226	1
0	1102	70.11667000149	2
0	1105	70.215836668157	0
0	1107	70.83243051137	1
0	1109	70.931597178037	0
0	1111	71.25081155763	1
0	1113	71.349978224297	0
0	1115	71.456753324095	1
0	1117	71.555919990762	0
0	1119	71.844805927368	1
0	1121	71.943972594035	0
0	1123	72.029542130525	1
0	1125	72.128708797192	0
0	1127	72.663148489523	1
0	1129	72.76231515619	0
0	1131	72.773990363511	1
0	1133	72.873157030178	0
0	1135	72.915069573875	1
0	1137	73.014236240542	0
0	1139	73.570285795714	1
0	1141	73.606318044473	2
0	1144	73.70548471114	0
0	1146	73.788779775762	1
0	1148	73.887946442429	0
0	1150	73.95608436913	1
0	1152	74.055251035797	0
0	1154	74.374542788366	1
0	1156	74.473709455033	0
0	1158	74.542416069879	1
0	1160	74.641582736546	0
0	1162	74.723755180943	1
0	1164	74.82292184761	0
0	1166	75.175689199891	1
0	1168	75.274855866558	0
0	1170	75.317155544696	1
0	1172	75.416322211363	0
0	1174	75.695729342634	1
0	1176	75.709675465264	2
0	1179	75.808842131931	0
0	1181	75.8352703303	1
0	1183	75.934436996967	0
0	1185	75.993409076634	1
0	1187	76.072874992877	2
0	1190	76.159238553237	2
0	1193	76.258405219904	0
0	1195	76.291678194018	1
0	1197	76.390844860685	0
0	1199	76.56348135222	1
0	1201	76.662648018887	0
0	1203	76.9072490859	1
0	1205	76.934223659384	2
0	1208	77.033390326051	0
0	1210	77.288338756844	1
0	1212	77.387505423511	0
0	1214	77.839666998906	1
0	1216	77.938833665573	0
0	1218	77.942782285144	1
0	1220	78.041948951811	0
0	1222	78.31493319191	1
0	1224	78.414099858577	0
0	1226	78.538444113404	1
0	1228	78.637610780071	0
0	1230	78.762957642995	1
0	1232	78.862124309662	0
0	1234	79.44677209226	1
0	1236	79.545080865349	2
0	1239	79.644247532016	0
0	1241	79.826984321903	1
0	1243	79.92615098857	0
0	1245	79.943713399873	1
0	1247	80.04288006654	0
0	1249	80.291675305336	1
0	1251	80.345747814096	2
0	1254	80.444914480763	0
0	1256	80.445464285844	1
0	1258	80.544630952511	0
0	1260	80.711716264552	1
0	1262	80.725031021132	2
0	1265	80.824197687799	0
0	1267	81.467067648081	1
0	1269	81.566234314748	0
0	1271	81.577559869363	1
0	1273	81.67672653603	0
0	1275	81.820499914117	1
0	1277	81.909722749753	2
0	1280	81.973265475637	2
0	1283	82.072432142304	0
0	1285	82.291278834478	1
0	1287	82.390445501145	0
0	1289	82.71635725502	1
0	1291	82.815523921687	0
0	1293	83.068332459466	1
0	1295	83.167499126133	0
0	1297	83.727698543292	1
0	1299	83.826865209959	0
0	1301	83.956918608365	1
0	1303	84.056085275032	0
0	1305	84.235360852121	1
0	1307	84.334527518788	0
0	1309	84.420748840123	1
0	1311	84.448479191582	2
0	1314	84.547645858249	0
0	1316	84.568923252807	1
0	1318	84.668089919474	0
0	1320	84.742020610089	1
0	1322	84.841187276756	0
0	1324	84.898105483241	1
0	1326	84.95889374782	2
0	1329	85.058060414487	0
0	1331	85.69773363408	1
0	1333	85.796900300747	0
0	1335	85.972117199736	1
0	1337	86.071283866403	0
0	1339	86.17410793705	1
0	1341	86.273274603717	0
0	1343	86.274167702291	1
0	1345	86.373334368958	0
0	1347	86.507640170169	1
0	1349	86.606806836836	0
0	1351	86.996940895936	1
0	1353	87.096107562603	0
0	1355	87.160258435806	1
0	1357	87.257751607226	2
0	1360	87.356918273893	0
0	1362	87.471612819612	1
0	1364	87.531904287909	2
0	1367	87.631070954576	0
0	1369	87.796674724233	1
0	1371	87.842855450316	2
0	1374	87.942022116983	0
0	1376	88.211507695643	1
0	1378	88.31067436231	0
0	1380	88.66011448648	1
0	1382	88.759281153147	0
0	1384	88.900208324352	1
0	1386	88.999374991019	0
0	1388	89.791965925109	1
0	1390	89.891132591776	0
0	1392	89.958431467038	1
0	1394	90.005790768801	2
0	1397	90.104957435468	0
0	1399	90.286035399002	1
0	1401	90.385202065669	0
0	1403	90.54936772593	1
0	1405	90.648534392597	0
0	1407	90.729704324096	1
0	1409	90.814080054064	2
0	1412	90.913246720731	0
0	1414	91.233269035516	1
0	1416	91.332435702183	0
0	1418	91.707159644842	1
0	1420	91.785927728811	2
0	1423	91.885094395478	0
0	1425	92.248051892908	1
0	1427	92.347218559575	0
0	1429	92.353921811427	1
0	1431	92.445644059343	2
0	1434	92.54481072601	0
0	1436	92.555442700704	1
0	1438	92.654609367371	0
0	1440	92.856395172435	1
0	1442	92.903806998489	2
0	1445	93.002973665156	0
0	1447	93.145515575526	1
0	1449	93.244682242193	0
0	1451	93.274248218814	1
0	1453	93.370994150956	2
0	1456	93.416197830288	2
0	1459	93.515364496955	0
0	1461	93.607001274222	1
0	1463	93.659542142058	2
0	1466	93.758708808725	0
0	1468	93.791420845522	1
0	1470	93.819411268004	2
0	1473	93.918577934671	0
0	1475	94.306120826585	1
0	1477	94.333204790783	2
0	1480	94.410886057162	2
0	1483	94.510052723829	0
0	1485	94.70616175321	1
0	1487	94.718692154061	2
0	1490	94.817858820728	0
0	1492	94.99039358324	1
0	1494	95.089560249907	0
0	1496	95.399844041383	1
0	1498	95.49901070805	0
0	1500	95.62657675553	1
0	1502	95.636688541866	2
0	1505	95.735855208533	0
0	1507	95.824687740665	1
0	1509	95.923854407332	0
0	1511	96.001512640957	1
0	1513	96.100679307624	0
0	1515	96.151394483858	1
0	1517	96.250561150525	0
0	1519	96.367424625049	1
0	1521	96.466591291716	0
0	1523	96.959207055603	1
0	1525	97.05837372227	0
0	1527	97.156062185333	1
0	1529	97.255228852	0
0	1531	97.533006885361	1
0	1533	97.632173552028	0
0	1535	97.640288616373	1
0	1537	97.648108838781	2
0	1540	97.747275505448	0
0	1542	98.424632849537	1
0	1544	98.523799516204	0
0	1546	98.579955040163	1
0	1548	98.67912170683	0
0	1550	99.099876994614	1
0	1552	99.199043661281	0
0	1554	99.358765159927	1
0	1556	99.358933156698	2
0	1558	99.39098598754	2
0	1562	99.490152654207	0
0	1564	99.788871936678	1
0	1566	99.888038603345	0
0	1568	100.385826811551	1
0	1570	100.484993478218	0
0	1572	100.837137561726	1
0	1574	100.936304228393	0
0	1576	101.007752278092	1
0	1578	101.106918944759	0
0	1580	101.445973251032	1
0	1582	101.545139917699	0
0	1584	101.997558598113	1
0	1586	102.09672526478	0
0	1588	102.271497632044	1
0	1590	102.370664298711	0
0	1592	102.547970822029	1
0	1594	102.562618305262	2
0	1597	102.661784971929	0
0	1599	102.758200162371	1
0	1601	102.765779060702	2
0	1603	102.818373596811	2
0	1607	102.917540263478	0
0	1609	102.990391527023	1
0	1611	103.003877597521	2
0	1613	103.021136833845	2
0	1615	103.079434969545	2
0	1620	103.178601636212	0
0	1622	103.552933482097	1
0	1624	103.652100148764	0
0	1626	103.698773599229	1
0	1628	103.733649532822	2
0	1631	103.832816199489	0
0	1633	103.904463245763	1
0	1635	104.00362991243	0
0	1637	104.030619594059	1
0	1639	104.072797641897	2
0	1642	104.171964308564	0
0	1644	104.336419919993	1
0	1646	104.345443744809	2
0	1648	104.363379356949	2
0	1650	104.42577311988	2
0	1655	104.524939786547	0
0	1657	104.77265506267	1
0	1659	104.821248569899	2
0	1662	104.920415236566	0
0	1664	105.122696044174	1
0	1666	105.221862710841	0
0	1668	105.510415741923	1
0	1670	105.545325947245	2
0	1673	105.644492613912	0
0	1675	105.923932119344	1
0	1677	105.950986285722	2
0	1680	106.050152952389	0
0	1682	106.126618531689	1
0	1684	106.225785198356	0
0	1686	106.648720884586	1
0	1688	106.747887551253	0
0	1690	107.242051251456	1
0	1692	107.341217918123	0
0	1694	107.557118310716	1
0	1696	107.656284977383	0
0	1698	107.666279416489	1
0	1700	107.765446083156	0
0	1702	107.813718718086	1
0	1704	107.912885384753	0
0	1706	108.061417580424	1
0	1708	108.116459584617	2
0	1711	108.215626251284	0
0	1713	108.913672107898	1
0	1715	109.012838774565	0
0	1717	109.484030951655	1
0	1719	109.577498764324	2
0	1722	109.676665430991	0
0	1724	109.838048656927	1
0	1726	109.937215323594	0
0	1728	110.372970641353	1
0	1730	110.47213730802	0
0	1732	110.961869798891	1
0	1734	110.971481945513	2
0	1737	111.07064861218	0
0	1739	111.479629453552	1
0	1741	111.508477795881	2
0	1744	111.607644462548	0
0	1746	111.716183321621	1
0	1748	111.751079071277	2
0	1751	111.850245737944	0
0	1753	112.147792925333	1
0	1755	112.208847458969	2
0	1758	112.308014125636	0
0	1760	112.703906460981	1
0	1762	112.803073127648	0
0	1764	112.829979545484	1
0	1766	112.929146212151	0
0	1768	113.054689451627	1
0	1770	113.073104029572	2
0	1773	113.172270696239	0
0	1775	113.834877232869	1
0	1777	113.934043899536	0
0	1779	113.960903156069	1
0	1781	114.060069822736	0
0	1783	114.147833054335	1
0	1785	114.246999721002	0
0	1787	114.746585551101	1
0	1789	114.845752217768	0
0	1791	115.046902444864	1
0	1793	115.146069111531	0
0	1795	115.384451752284	1
0	1797	115.483618418951	0
0	1799	115.522065336536	1
0	1801	115.621232003203	0
0	1803	115.675085536392	1
0	1805	115.704736488753	2
0	1808	115.80390315542	0
0	1810	116.161210149267	1
0	1812	116.260376815934	0
0	1814	116.522022376844	1
0	1816	116.621189043511	0
0	1818	116.643688514778	1
0	1820	116.742855181445	0
0	1822	117.283978051637	1
0	1824	117.383144718304	0
0	1826	118.358058752607	1
0	1828	118.457225419274	0
0	1830	118.549679839808	1
0	1832	118.624993079269	2
0	1835	118.724159745936	0
0	1837	119.508389724616	1
0	1839	119.52755110021	2
0	1842	119.626717766877	0
0	1844	120.022278089333	1
0	1846	120.121444756	0
0	1848	121.724343986068	1
0	1850	121.823510652735	0
0	1852	121.977170701756	1
0	1854	122.076337368423	0
0	1856	122.226444427494	1
0	1858	122.325611094161	0
0	1860	122.378701268768	1
0	1862	122.458409600041	2
0	1865	122.488909028724	2
0	1868	122.588075695391	0
0	1870	122.588501000867	1
0	1872	122.687667667534	0
0	1874	122.809585194376	1
0	1876	122.908751861043	0
0	1878	122.929777627392	1
0	1880	122.950073355815	2
0	1883	123.049240022482	0
0	1885	123.464124788487	1
0	1887	123.563291455154	0
0	1889	123.781647269318	1
0	1891	123.880813935985	0
0	1893	123.890309164902	1
0	1895	123.989475831569	0
0	1897	124.026531352976	1
0	1899	124.038738216277	2
0	1901	124.086413832234	2
0	1905	124.185580498901	0
0	1907	124.418620845385	1
0	1909	124.517787512052	0
0	1911	124.578317664679	1
0	1913	124.677484331346	0
0	1915	125.643648851428	1
0	1917	125.742815518095	0
0	1919	126.166264175071	1
0	1921	126.226815189062	2
0	1923	126.257791092199	2
0	1927	126.356957758866	0
0	1929	127.274264825993	1
0	1931	127.37343149266	0
0	1933	127.61618938616	1
0	1935	127.62812342013	2
0	1938	127.727290086797	0
0	1940	127.897900259884	1
0	1942	127.974493746829	2
0	1945	128.073660413496	0
0	1947	128.390899109844	1
0	1949	128.45570688082	2
0	1951	128.461980130827	2
0	1954	128.506990628961	2
0	1956	128.527783601941	2
0	1961	128.626950268608	0
0	1963	128.797367109806	1
0	1965	128.896533776473	0
0	1967	128.922713990804	1
0	1969	129.021880657471	0
0	1971	129.158317865936	1
0	1973	129.257484532603	0
0	1975	129.31225604618	1
0	1977	129.411422712847	0
0	1979	129.454389231214	1
0	1981	129.553555897881	0
0	1983	129.621428089604	1
0	1985	129.720594756271	0
0	1987	129.744794595828	1
0	1989	129.843961262495	0
0	1991	130.102659899244	1
0	1993	130.201826565911	0
0	1995	130.316436914189	1
0	1997	130.415603580856	0
0	1999	130.47525636274	1
0	2001	130.574423029407	0
0	2003	130.685483446436	1
0	2005	130.784650113103	0
0	2007	131.296880238813	1
0	2009	131.39604690548	0
0	2011	131.669149330686	1
0	2013	131.743133311229	2
0	2016	131.842299977896	0
0	2018	131.899746841043	1
0	2020	131.960485769976	2
0	2022	131.961251740308	2
0	2026	132.060418406975	0
0	2028	132.248466847929	1
0	2030	132.347633514596	0
0	2032	132.630494135508	1
0	2034	132.729660802175	0
0	2036	132.815622309085	1
0	2038	132.914788975752	0
0	2040	132.962839999045	1
0	2042	133.062006665712	0
0	2044	133.652950089784	1
0	2046	133.752116756451	0
0	2048	133.924420913013	1
0	2050	134.02358757968	0
0	2052	134.474355631325	1
0	2054	134.573522297992	0
0	2056	134.874898787084	1
0	2058	134.974065453751	0
0	2060	134.994463296137	1
0	2062	135.071265001667	2
0	2065	135.170431668334	0
0	2067	135.673629908324	1
0	2069	135.682802138064	2
0	2072	135.781968804731	0
0	2074	135.812159619274	1
0	2076	135.831895882476	2
0	2079	135.931062549143	0
0	2081	135.976842661777	1
0	2083	136.076009328444	0
0	2085	136.205535357562	1
0	2087	136.304702024229	0
0	2089	136.399498905216	1
0	2091	136.498665571883	0
0	2093	137.087733704845	1
0	2095	137.176652072053	2
0	2098	137.27581873872	0
0	2100	137.531835633737	1
0	2102	137.541590590417	2
0	2104	137.627040367933	2
0	2108	137.7262070346	0
0	2110	138.088246582988	1
0	2112	138.187413249655	0
0	2114	138.674446357714	1
0	2116	138.731283457656	2
0	2118	138.753532317163	2
0	2122	138.85269898383	0
0	2124	139.214900857876	1
0	2126	139.314067524543	0
0	2128	139.744524758385	1
0	2130	139.76915237507	2
0	2133	139.868319041737	0
0	2135	139.874922460981	1
0	2137	139.974089127648	0
0	2139	140.262678245152	1
0	2141	140.275859642892	2
0	2144	140.375026309559	0
0	2146	140.48345171663	1
0	2148	140.545561747711	2
0	2151	140.644728414378	0
0	2153	140.736555064431	1
0	2155	140.835721731098	0
0	2157	141.594549079093	1
0	2159	141.668790998276	2
0	2162	141.767957664943	0
0	2164	142.083336947483	1
0	2166	142.18250361415	0
0	2168	142.416287949429	1
0	2170	142.515454616096	0
0	2172	143.150295446222	1
0	2174	143.249462112889	0
0	2176	143.412755137077	1
0	2178	143.445458581372	2
0	2181	143.517899190528	2
0	2183	143.540581599607	2
0	2187	143.639748266274	0
0	2189	143.722314432663	1
0	2191	143.82148109933	0
0	2193	143.856524027523	1
0	2195	143.95569069419	0
0	2197	144.281587548472	1
0	2199	144.295010916128	2
0	2202	144.394177582795	0
0	2204	145.238551728066	1
0	2206	145.26656212324	2
0	2208	145.326584943719	2
0	2212	145.382412364787	2
0	2215	145.481579031454	0
0	2217	145.728693849443	1
0	2219	145.82786051611	0
0	2221	145.845303437394	1
0	2223	145.944470104061	0
0	2225	145.984176992931	1
0	2227	146.083343659598	0
0	2229	146.183257001637	1
0	2231	146.253384369342	2
0	2233	146.279442839394	2
0	2237	146.378609506061	0
0	2239	146.876264160121	1
0	2241	146.975430826788	0
0	2243	147.46854847592	1
0	2245	147.514104337105	2
0	2248	147.613271003772	0
0	2250	148.17856811922	1
0	2252	148.277734785887	0
0	2254	148.462745147798	1
0	2256	148.561911814465	0
0	2258	148.566702881561	1
0	2260	148.665869548228	0
0	2262	148.9114472258	1
0	2264	149.010613892467	0
0	2266	149.048005813161	1
0	2268	149.147172479828	0
0	2270	149.234718382684	1
0	2272	149.333885049351	0
0	2274	149.668790267233	1
0	2276	149.7679569339	0
0	2278	150.119810335488	1
0	2280	150.166034269193	2
0	2282	150.177295082809	2
0	2286	150.276461749476	0
0	2288	150.296056995407	1
0	2290	150.395223662074	0
0	2292	150.410514968872	1
0	2294	150.509681635539	0
0	2296	150.918048176731	1
0	2298	151.017214843398	0
0	2300	151.053690230557	1
0	2302	151.152856897224	0
0	2304	151.155695884699	1
0	2306	151.254862551366	0
0	2308	151.287104566915	1
0	2310	151.386271233582	0
0	2312	151.628041062069	1
0	2314	151.727207728736	0
0	2316	152.170257401612	1
0	2318	152.269424068279	0
0	2320	152.82676516232	1
0	2322	152.925931828987	0
0	2324	153.742099161208	1
0	2326	153.800991232464	2
0	2329	153.87091496661	2