version 3
run PureAlohaExperiment-13-20250302-16:22:01-14228
attr configname PureAlohaExperiment
attr datetime 20250302-16:22:01
attr datetimef 20250302-162201
attr experiment PureAlohaExperiment
attr inifile omnetpp.ini
attr iterationvars "$numHosts=15, $iaMean=9"
attr iterationvarsd numHosts=15/iaMean=9
attr iterationvarsf numHosts=15,iaMean=9-
attr measurement "$numHosts=15, $iaMean=9"
attr network Aloha
attr processid 14228
attr repetition 0
attr replication #0
attr resultdir results
attr runnumber 13
attr seedset 13
itervar iaMean 9
itervar numHosts 15
config description "Channel utilization in the function of packet generation frequency"
config repeat 1
config sim-time-limit 90min
config Aloha.numHosts 15
config Aloha.host[*].iaTime exponential(9s)
config network Aloha
config Aloha.numHosts 20
config Aloha.slotTime 0s
config Aloha.txRate 9.6kbps
config Aloha.host[*].pkLenBits 952b
config **.x "uniform(0m, 1000m)"
config **.y "uniform(0m, 1000m)"
config **.animationHoldTimeOnCollision 0s
config **.idleAnimationSpeed 1
config **.transmissionEdgeAnimationSpeed 1e-6
config **.midTransmissionAnimationSpeed 1e-1

vector 0 Aloha.server serverChannelState:vector ETV
attr enum IDLE=0,TRANSMISSION=1,COLLISION=2
attr recordingmode vector
attr source channelState
attr title "Channel state"
vector 1 Aloha.server channelUtilization:vector ETV
attr interpolationmode linear
attr recordingmode vector
attr source timeavg(receive)
attr title "channel utilization"
vector 2 Aloha.host[0] radioState:vector ETV
attr enum IDLE=0,TRANSMIT=1
attr recordingmode vector
attr source state
attr title "Radio state"
vector 3 Aloha.host[1] radioState:vector ETV
attr enum IDLE=0,TRANSMIT=1
attr recordingmode vector
attr source state
attr title "Radio state"
vector 4 Aloha.host[2] radioState:vector ETV
attr enum IDLE=0,TRANSMIT=1
attr recordingmode vector
attr source state
attr title "Radio state"
vector 5 Aloha.host[3] radioState:vector ETV
attr enum IDLE=0,TRANSMIT=1
attr recordingmode vector
attr source state
attr title "Radio state"
vector 6 Aloha.host[4] radioState:vector ETV
attr enum IDLE=0,TRANSMIT=1
attr recordingmode vector
attr source state
attr title "Radio state"
vector 7 Aloha.host[5] radioState:vector ETV
attr enum IDLE=0,TRANSMIT=1
attr recordingmode vector
attr source state
attr title "Radio state"
vector 8 Aloha.host[6] radioState:vector ETV
attr enum IDLE=0,TRANSMIT=1
attr recordingmode vector
attr source state
attr title "Radio state"
vector 9 Aloha.host[7] radioState:vector ETV
attr enum IDLE=0,TRANSMIT=1
attr recordingmode vector
attr source state
attr title "Radio state"
vector 10 Aloha.host[8] radioState:vector ETV
attr enum IDLE=0,TRANSMIT=1
attr recordingmode vector
attr source state
attr title "Radio state"
vector 11 Aloha.host[9] radioState:vector ETV
attr enum IDLE=0,TRANSMIT=1
attr recordingmode vector
attr source state
attr title "Radio state"
vector 12 Aloha.host[10] radioState:vector ETV
attr enum IDLE=0,TRANSMIT=1
attr recordingmode vector
attr source state
attr title "Radio state"
vector 13 Aloha.host[11] radioState:vector ETV
attr enum IDLE=0,TRANSMIT=1
attr recordingmode vector
attr source state
attr title "Radio state"
vector 14 Aloha.host[12] radioState:vector ETV
attr enum IDLE=0,TRANSMIT=1
attr recordingmode vector
attr source state
attr title "Radio state"
vector 15 Aloha.host[13] radioState:vector ETV
attr enum IDLE=0,TRANSMIT=1
attr recordingmode vector
attr source state
attr title "Radio state"
vector 16 Aloha.host[14] radioState:vector ETV
attr enum IDLE=0,TRANSMIT=1
attr recordingmode vector
attr source state
attr title "Radio state"
0	0	0	0
0	2	0.085117317091	1
0	4	0.184283983758	0
0	6	1.789426665424	1
0	8	1.888593332091	0
0	10	2.180406436615	1
0	12	2.211944477873	2
0	15	2.31111114454	0
0	17	2.664817261744	1
0	19	2.763983928411	0
0	21	2.916803658432	1
0	23	3.015970325099	0
0	25	3.462910978221	1
0	27	3.562077644888	0
0	29	3.843619071735	1
0	31	3.942785738402	0
0	33	3.993183834318	1
0	35	4.092350500985	0
0	37	4.580903058	1
0	39	4.680069724667	0
0	41	4.758855126873	1
0	43	4.85802179354	0
0	45	5.900529801338	1
0	47	5.999696468005	0
0	49	6.6288621555	1
0	51	6.728028822167	0
0	53	6.806229820655	1
0	55	6.905396487322	0
0	57	6.957278970412	1
0	59	7.056445637079	0
0	61	8.577855802721	1
0	63	8.677022469388	0
0	65	9.02916363947	1
0	67	9.128330306137	0
0	69	9.385659624253	1
0	71	9.48482629092	0
0	73	11.093427456599	1
0	75	11.192594123266	0
0	77	11.549375087728	1
0	79	11.648541754395	0
0	81	11.960082308844	1
0	83	12.059248975511	0
0	85	13.298191943299	1
0	87	13.397358609966	0
0	89	13.443996169466	1
0	91	13.543162836133	0
0	93	17.267677298807	1
0	95	17.366843965474	0
0	97	17.464216991034	1
0	99	17.563383657701	0
0	101	18.055149529751	1
0	103	18.154316196418	0
0	105	18.154424539455	1
0	107	18.241885408988	2
0	110	18.341052075655	0
0	112	18.353962049929	1
0	114	18.453128716596	0
0	116	18.804553261125	1
0	118	18.903719927792	0
0	120	19.100769683392	1
0	122	19.199936350059	0
0	124	19.280678841462	1
0	126	19.379845508129	0
0	128	19.387293819642	1
0	130	19.486460486309	0
0	132	19.517381502499	1
0	134	19.616548169166	0
0	136	19.99236208596	1
0	138	20.091528752627	0
0	140	20.894008026933	1
0	142	20.9931746936	0
0	144	21.987575735172	1
0	146	22.086742401839	0
0	148	22.342998867461	1
0	150	22.442165534128	0
0	152	22.48437724211	1
0	154	22.535617278739	2
0	156	22.572730948545	2
0	160	22.671897615212	0
0	162	22.911657919124	1
0	164	23.010824585791	0
0	166	25.157873989459	1
0	168	25.187669581042	2
0	171	25.286836247709	0
0	173	25.884786607643	1
0	175	25.98395327431	0
0	177	26.800003340913	1
0	179	26.822145849219	2
0	182	26.921312515886	0
0	184	27.492130615619	1
0	186	27.591297282286	0
0	188	27.911958982128	1
0	190	28.011125648795	0
0	192	28.524653179697	1
0	194	28.623819846364	0
0	196	28.63266855238	1
0	198	28.731835219047	0
0	200	28.755208475563	1
0	202	28.85437514223	0
0	204	29.487380672612	1
0	206	29.586547339279	0
0	208	30.103646632949	1
0	210	30.114147140666	2
0	213	30.213313807333	0
0	215	30.64742998258	1
0	217	30.746596649247	0
0	219	31.191819337717	1
0	221	31.290986004384	0
0	223	31.685653638036	1
0	225	31.693320325581	2
0	228	31.792486992248	0
0	230	33.025371159904	1
0	232	33.121174723671	2
0	235	33.220341390338	0
0	237	33.863604931617	1
0	239	33.962771598284	0
0	241	34.058390901536	1
0	243	34.060323294776	2
0	246	34.159489961443	0
0	248	35.50659656814	1
0	250	35.605763234807	0
0	252	35.641097826396	1
0	254	35.740264493063	0
0	256	35.940621473224	1
0	258	36.039788139891	0
0	260	36.238002918217	1
0	262	36.337169584884	0
0	264	36.498776723212	1
0	266	36.597943389879	0
0	268	37.265320231155	1
0	270	37.364486897822	0
0	272	37.800853078714	1
0	274	37.898434985804	2
0	277	37.975209403793	2
0	280	38.07437607046	0
0	282	38.931560373879	1
0	284	39.030727040546	0
0	286	39.806737840604	1
0	288	39.905904507271	0
0	290	40.131091634997	1
0	292	40.230258301664	0
0	294	40.630512760482	1
0	296	40.729679427149	0
0	298	40.909922771867	1
0	300	41.009089438534	0
0	302	41.944470160165	1
0	304	42.043636826832	0
0	306	42.581325528454	1
0	308	42.680492195121	0
0	310	42.806424236927	1
0	312	42.905590903594	0
0	314	44.497867223555	1
0	316	44.597033890222	0
0	318	44.764821844749	1
0	320	44.863988511416	0
0	322	44.89022263351	1
0	324	44.9794519031	2
0	327	45.012251631656	2
0	330	45.111418298323	0
0	332	45.392246772009	1
0	334	45.491413438676	0
0	336	45.570030553429	1
0	338	45.669197220096	0
0	340	46.005560299764	1
0	342	46.104726966431	0
0	344	46.350924514052	1
0	346	46.450091180719	0
0	348	46.595031999661	1
0	350	46.694198666328	0
0	352	46.806983162834	1
0	354	46.896107235045	2
0	357	46.995273901712	0
0	359	47.358070982933	1
0	361	47.42923379342	2
0	364	47.528400460087	0
0	366	47.87129136838	1
0	368	47.970458035047	0
0	370	48.986759339107	1
0	372	49.085926005774	0
0	374	50.978963223308	1
0	376	51.078129889975	0
0	378	51.078759817811	1
0	380	51.177926484478	0
0	382	51.182822873418	1
0	384	51.281989540085	0
0	386	51.386636878341	1
0	388	51.485803545008	0
0	390	52.479542695254	1
0	392	52.578709361921	0
0	394	53.283877722827	1
0	396	53.383044389494	0
0	398	53.655182410273	1
0	400	53.678329028768	2
0	403	53.777495695435	0
0	405	54.891198431847	1
0	407	54.990365098514	0
0	409	55.367971067824	1
0	411	55.467137734491	0
0	413	56.309741350244	1
0	415	56.408908016911	0
0	417	56.873112163755	1
0	419	56.972278830422	0
0	421	57.111089330284	1
0	423	57.210255996951	0
0	425	57.339561290919	1
0	427	57.438727957586	0
0	429	57.485941313598	1
0	431	57.585107980265	0
0	433	58.357126467969	1
0	435	58.456293134636	0
0	437	58.836074928566	1
0	439	58.935241595233	0
0	441	59.172805323605	1
0	443	59.271971990272	0
0	445	59.398271681416	1
0	447	59.497438348083	0
0	449	59.519118330274	1
0	451	59.618284996941	0
0	453	60.255029471059	1
0	455	60.354196137726	0
0	457	61.59678261583	1
0	459	61.695949282497	0
0	461	62.450086918243	1
0	463	62.54925358491	0
0	465	64.931135364906	1
0	467	65.030302031573	0
0	469	65.054527950293	1
0	471	65.15369461696	0
0	473	65.353946399446	1
0	475	65.453113066113	0
0	477	65.605764591749	1
0	479	65.704931258416	0
0	481	66.71543003011	1
0	483	66.814596696777	0
0	485	67.180388725924	1
0	487	67.279555392591	0
0	489	67.444243888173	1
0	491	67.54341055484	0
0	493	70.820530354252	1
0	495	70.919697020919	0
0	497	72.286290812534	1
0	499	72.385457479201	0
0	501	72.451722996401	1
0	503	72.541816913965	2
0	506	72.640983580632	0
0	508	73.076795930731	1
0	510	73.175962597398	0
0	512	74.259819581313	1
0	514	74.35898624798	0
0	516	74.565092754941	1
0	518	74.662893123986	2
0	521	74.762059790653	0
0	523	75.208721449913	1
0	525	75.30788811658	0
0	527	75.414613853316	1
0	529	75.422432260798	2
0	532	75.521598927465	0
0	534	76.563377038945	1
0	536	76.662543705612	0
0	538	77.720609938787	1
0	540	77.819776605454	0
0	542	78.651316583629	1
0	544	78.750483250296	0
0	546	79.920369394914	1
0	548	79.997004949294	2
0	551	80.096171615961	0
0	553	81.591280009392	1
0	555	81.636493477339	2
0	558	81.735660144006	0
0	560	81.930381501901	1
0	562	82.029548168568	0
0	564	82.798589355623	1
0	566	82.89775602229	0
0	568	83.634812970727	1
0	570	83.733979637394	0
0	572	84.210589632761	1
0	574	84.309756299428	0
0	576	84.376652535796	1
0	578	84.475819202463	0
0	580	85.269670193261	1
0	582	85.368836859928	0
0	584	85.653979190626	1
0	586	85.753145857293	0
0	588	85.980644508058	1
0	590	86.079811174725	0
0	592	86.558793555262	1
0	594	86.657960221929	0
0	596	87.384622393036	1
0	598	87.483789059703	0
0	600	87.668575901136	1
0	602	87.715460859252	2
0	605	87.814627525919	0
0	607	89.410250836853	1
0	609	89.50941750352	0
0	611	91.417633656127	1
0	613	91.516800322794	0
0	615	91.9049768754	1
0	617	92.004143542067	0
0	619	92.437518190014	1
0	621	92.536684856681	0
0	623	92.875489719078	1
0	625	92.974656385745	0
0	627	93.927575222202	1
0	629	94.026741888869	0
0	631	94.153917455241	1
0	633	94.253084121908	0
0	635	94.398913688652	1
0	637	94.498080355319	0
0	639	95.358791861954	1
0	641	95.457958528621	0
0	643	96.537973491611	1
0	645	96.637140158278	0
0	647	97.095329946968	1
0	649	97.194496613635	0
0	651	97.395993232477	1
0	653	97.495159899144	0
0	655	98.694245288463	1
0	657	98.79341195513	0
0	659	99.043534375663	1
0	661	99.14270104233	0
0	663	100.263692956971	1
0	665	100.362859623638	0
0	667	100.842274283996	1
0	669	100.941440950663	0
0	671	100.992789251707	1
0	673	101.091955918374	0
0	675	101.850660166647	1
0	677	101.949826833314	0
0	679	102.640250212961	1
0	681	102.739416879628	0
0	683	103.083760383424	1
0	685	103.182927050091	0
0	687	103.321414354505	1
0	689	103.420581021172	0
0	691	103.545281809624	1
0	693	103.644448476291	0
0	695	103.786335854968	1
0	697	103.885502521635	0
0	699	104.068847880953	1
0	701	104.16801454762	0
0	703	104.526346826894	1
0	705	104.614762666856	2
0	708	104.713929333523	0
0	710	105.759242695986	1
0	712	105.858409362653	0
0	714	105.966908787239	1
0	716	106.066075453906	0
0	718	106.168071606821	1
0	720	106.177294963196	2
0	723	106.276461629863	0
0	725	106.556734568294	1
0	727	106.655901234961	0
0	729	107.575297040978	1
0	731	107.674463707645	0
0	733	107.872653041669	1
0	735	107.971819708336	0
0	737	108.211934232144	1
0	739	108.311100898811	0
0	741	108.711021987126	1
0	743	108.810188653793	0
0	745	108.909322574297	1
0	747	109.008489240964	0
0	749	109.79273521722	1
0	751	109.891901883887	0
0	753	110.575232210998	1
0	755	110.674398877665	0
0	757	110.773894452963	1
0	759	110.87306111963	0
0	761	111.116006925987	1
0	763	111.194266982526	2
0	766	111.293433649193	0
0	768	113.550109266918	1
0	770	113.649275933585	0
0	772	113.936541215528	1
0	774	114.035707882195	0
0	776	114.199480481672	1
0	778	114.298647148339	0
0	780	115.015680527253	1
0	782	115.11484719392	0
0	784	115.234443914097	1
0	786	115.333610580764	0
0	788	116.602683698736	1
0	790	116.701850365403	0
0	792	117.463166110166	1
0	794	117.550156525993	2
0	797	117.64932319266	0
0	799	117.765289423623	1
0	801	117.86445609029	0
0	803	118.063980850318	1
0	805	118.163147516985	0
0	807	118.250562700247	1
0	809	118.313760295678	2
0	812	118.409163137975	2
0	815	118.508329804642	0
0	817	118.910844443104	1
0	819	119.010011109771	0
0	821	119.111247339046	1
0	823	119.210414005713	0
0	825	120.108077394761	1
0	827	120.207244061428	0
0	829	120.812832962388	1
0	831	120.911999629055	0
0	833	123.10473001374	1
0	835	123.203896680407	0
0	837	123.225849250943	1
0	839	123.32501591761	0
0	841	123.364171356271	1
0	843	123.406909527179	2
0	846	123.506076193846	0
0	848	124.87325353251	1
0	850	124.972420199177	0
0	852	125.831855756035	1
0	854	125.905867769786	2
0	857	126.005034436453	0
0	859	126.586837692155	1
0	861	126.686004358822	0
0	863	127.077928012888	1
0	865	127.177094679555	0
0	867	127.681570434522	1
0	869	127.780737101189	0
0	871	129.087535422079	1
0	873	129.186702088746	0
0	875	129.997671152075	1
0	877	130.096837818742	0
0	879	132.613412073664	1
0	881	132.712578740331	0
0	883	132.773055285419	1
0	885	132.807840640601	2
0	888	132.907007307268	0
0	890	132.912206902089	1
0	892	133.011373568756	0
0	894	133.397571035258	1
0	896	133.422234774778	2
0	899	133.521401441445	0
0	901	133.921709777966	1
0	903	134.020876444633	0
0	905	134.68440750734	1
0	907	134.783574174007	0
0	909	135.163395637547	1
0	911	135.17032115993	2
0	914	135.269487826597	0
0	916	135.399725039534	1
0	918	135.498891706201	0
0	920	137.097469701693	1
0	922	137.19663636836	0
0	924	138.320008945055	1
0	926	138.395997486351	2
0	929	138.495164153018	0
0	931	138.803545311227	1
0	933	138.807346970663	2
0	935	138.852115561541	2
0	939	138.951282228208	0
0	941	140.534818667349	1
0	943	140.633985334016	0
0	945	143.248373034244	1
0	947	143.347539700911	0
0	949	143.429051387407	1
0	951	143.528218054074	0
0	953	144.014631133333	1
0	955	144.1137978	0
0	957	144.136090364194	1
0	959	144.235257030861	0
0	961	144.266195381288	1
0	963	144.365362047955	0
0	965	145.119347955411	1
0	967	145.218514622078	0
0	969	146.25524756687	1
0	971	146.283864194558	2
0	974	146.383030861225	0
0	976	146.425302929819	1
0	978	146.524469596486	0
0	980	146.97856309173	1
0	982	147.077729758397	0
0	984	147.35412572218	1
0	986	147.453292388847	0
0	988	147.635860889437	1
0	990	147.67248818859	2
0	993	147.771654855257	0
0	995	147.942126571671	1
0	997	148.041293238338	0
0	999	148.199938426947	1
0	1001	148.299105093614	0
0	1003	148.912922555505	1
0	1005	149.012089222172	0
0	1007	149.446229058362	1
0	1009	149.545395725029	0
0	1011	149.789093724635	1
0	1013	149.888260391302	0
0	1015	150.08218012187	1
0	1017	150.181346788537	0
0	1019	151.596705457684	1
0	1021	151.695872124351	0
0	1023	153.15688890651	1
0	1025	153.256055573177	0
0	1027	153.756911014649	1
0	1029	153.856077681316	0
0	1031	154.041622090399	1
0	1033	154.140788757066	0
0	1035	154.307395528811	1
0	1037	154.406562195478	0
0	1039	155.61003354707	1
0	1041	155.709200213737	0
0	1043	155.904977859353	1
0	1045	156.00414452602	0
0	1047	156.306460327416	1
0	1049	156.405626994083	0
0	1051	156.469664025131	1
0	1053	156.568830691798	0
0	1055	156.806672152572	1
0	1057	156.883574143995	2
0	1060	156.982740810662	0
0	1062	157.18935884791	1
0	1064	157.288525514577	0
0	1066	157.41547296712	1
0	1068	157.514639633787	0
0	1070	157.665859249684	1
0	1072	157.765025916351	0
0	1074	158.509551172289	1
0	1076	158.608717838956	0
0	1078	159.10034567382	1
0	1080	159.152158279397	2
0	1083	159.251324946064	0
0	1085	159.437249189313	1
0	1087	159.53641585598	0
0	1089	160.461005246117	1
0	1091	160.560171912784	0
0	1093	161.769688537862	1
0	1095	161.774842839817	2
0	1098	161.874009506484	0
0	1100	162.264994690126	1
0	1102	162.364161356793	0
0	1104	163.600196512924	1
0	1106	163.699363179591	0
0	1108	164.579540436107	1
0	1110	164.678707102774	0
0	1112	164.795084616087	1
0	1114	164.894251282754	0
0	1116	165.620630452431	1
0	1118	165.719797119098	0
0	1120	166.409181618335	1
0	1122	166.508348285002	0
0	1124	167.794678079217	1
0	1126	167.893844745884	0
0	1128	168.201670243112	1
0	1130	168.300836909779	0
0	1132	173.631635126602	1
0	1134	173.650863036687	2
0	1137	173.737668792927	2
0	1140	173.836835459594	0
0	1142	175.658154003507	1
0	1144	175.757320670174	0
0	1146	175.837090377061	1
0	1148	175.936257043728	0
0	1150	176.025305074982	1
0	1152	176.095090687593	2
0	1155	176.19425735426	0
0	1157	177.553077907926	1
0	1159	177.652244574593	0
0	1161	177.794125789689	1
0	1163	177.893292456356	0
0	1165	178.369107092988	1
0	1167	178.468273759655	0
0	1169	179.171490514117	1
0	1171	179.270657180784	0
0	1173	180.003522341745	1
0	1175	180.102689008412	0
0	1177	181.220797858405	1
0	1179	181.298984551029	2
0	1182	181.398151217696	0
0	1184	181.707249555329	1
0	1186	181.806416221996	0
0	1188	182.705289469347	1
0	1190	182.804456136014	0
0	1192	183.594711262445	1
0	1194	183.693877929112	0
0	1196	184.833160716199	1
0	1198	184.932327382866	0
0	1200	184.982051145401	1
0	1202	185.057540749518	2
0	1205	185.156707416185	0
0	1207	186.734398457265	1
0	1209	186.820104564802	2
0	1212	186.919271231469	0
0	1214	187.727638174233	1
0	1216	187.8268048409	0
0	1218	188.302605921933	1
0	1220	188.4017725886	0
0	1222	189.888167814723	1
0	1224	189.98733448139	0
0	1226	190.09333147826	1
0	1228	190.192498144927	0
0	1230	191.829369791808	1
0	1232	191.928536458475	0
0	1234	192.570739539428	1
0	1236	192.669906206095	0
0	1238	193.23623973722	1
0	1240	193.335406403887	0
0	1242	193.969567909886	1
0	1244	194.000253882243	2
0	1247	194.09942054891	0
0	1249	194.478892269744	1
0	1251	194.481920498309	2
0	1254	194.581087164976	0
0	1256	194.652236482089	1
0	1258	194.751403148756	0
0	1260	194.812931856078	1
0	1262	194.824994435233	2
0	1265	194.9241611019	0
0	1267	195.038679449722	1
0	1269	195.137846116389	0
0	1271	196.386014800454	1
0	1273	196.485181467121	0
0	1275	196.74334082299	1
0	1277	196.842507489657	0
0	1279	196.850478329224	1
0	1281	196.949644995891	0
0	1283	197.18514156666	1
0	1285	197.284308233327	0
0	1287	198.425826780543	1
0	1289	198.52499344721	0
0	1291	198.580466825787	1
0	1293	198.679633492454	0
0	1295	200.226650441493	1
0	1297	200.32581710816	0
0	1299	200.739825657266	1
0	1301	200.838992323933	0
0	1303	201.07963002101	1
0	1305	201.178796687677	0
0	1307	201.461027145106	1
0	1309	201.560193811773	0
0	1311	202.366763296883	1
0	1313	202.46592996355	0
0	1315	204.156887600674	1
0	1317	204.241436849681	2
0	1320	204.340603516348	0
0	1322	205.133042078143	1
0	1324	205.173988410025	2
0	1327	205.254492436364	2
0	1330	205.353659103031	0
0	1332	205.885051343393	1
0	1334	205.923979362479	2
0	1337	206.00222325196	2
0	1340	206.101389918627	0
0	1342	207.722788808329	1
0	1344	207.821955474996	0
0	1346	208.114764624414	1
0	1348	208.213931291081	0
0	1350	208.550745460188	1
0	1352	208.578936745671	2
0	1355	208.678103412338	0
0	1357	209.825215528567	1
0	1359	209.924382195234	0
0	1361	210.284901856737	1
0	1363	210.384068523404	0
0	1365	210.978373503973	1
0	1367	211.07754017064	0
0	1369	211.744478604277	1
0	1371	211.843645270944	0
0	1373	212.284627846434	1
0	1375	212.383794513101	0
0	1377	213.518558437151	1
0	1379	213.617725103818	0
0	1381	214.671023225986	1
0	1383	214.770189892653	0
0	1385	215.416826223021	1
0	1387	215.490327712336	2
0	1390	215.589494379003	0
0	1392	215.849702930416	1
0	1394	215.948869597083	0
0	1396	216.265735789322	1
0	1398	216.32864019222	2
0	1401	216.427806858887	0
0	1403	217.155794051785	1
0	1405	217.254960718452	0
0	1407	217.457932046798	1
0	1409	217.557098713465	0
0	1411	218.173893446594	1
0	1413	218.273060113261	0
0	1415	218.47462770443	1
0	1417	218.573794371097	0
0	1419	218.790000603761	1
0	1421	218.889167270428	0
0	1423	219.022428493102	1
0	1425	219.121595159769	0
0	1427	219.479022728508	1
0	1429	219.578189395175	0
0	1431	220.041115391668	1
0	1433	220.140282058335	0
0	1435	221.010505009612	1
0	1437	221.109671676279	0
0	1439	221.500148612526	1
0	1441	221.599315279193	0
0	1443	222.503996226283	1
0	1445	222.60316289295	0
0	1447	222.604624342886	1
0	1449	222.703791009553	0
0	1451	223.526548014103	1
0	1453	223.62571468077	0
0	1455	224.157325663979	1
0	1457	224.256492330646	0
0	1459	224.723829800057	1
0	1461	224.822996466724	0
0	1463	225.440228979169	1
0	1465	225.539395645836	0
0	1467	225.810238668011	1
0	1469	225.909405334678	0
0	1471	226.687842112131	1
0	1473	226.705676932048	2
0	1476	226.804843598715	0
0	1478	227.552900661835	1
0	1480	227.652067328502	0
0	1482	229.469353411087	1
0	1484	229.526306057372	2
0	1487	229.625472724039	0
0	1489	231.786751320437	1
0	1491	231.885917987104	0
0	1493	232.537616899608	1
0	1495	232.636783566275	0
0	1497	232.9458424763	1
0	1499	233.045009142967	0
0	1501	234.667998342234	1
0	1503	234.670002698189	2
0	1506	234.769169364856	0
0	1508	235.8526205499	1
0	1510	235.951787216567	0
0	1512	236.025493918366	1
0	1514	236.124660585033	0
0	1516	236.151598422439	1
0	1518	236.250765089106	0
0	1520	236.773622081305	1
0	1522	236.872788747972	0
0	1524	237.382161527174	1
0	1526	237.481328193841	0
0	1528	237.627237963318	1
0	1530	237.726404629985	0
0	1532	237.772499275228	1
0	1534	237.871665941895	0
0	1536	237.902467114443	1
0	1538	238.00163378111	0
0	1540	238.122879221335	1
0	1542	238.222045888002	0
0	1544	238.676176016045	1
0	1546	238.775342682712	0
0	1548	240.562636691424	1
0	1550	240.661803358091	0
0	1552	241.170763539107	1
0	1554	241.269930205774	0
0	1556	243.355700167282	1
0	1558	243.454866833949	0
0	1560	243.872295803496	1
0	1562	243.971462470163	0
0	1564	244.714484889621	1
0	1566	244.808851678009	2
0	1569	244.908018344676	0
0	1571	247.147045973353	1
0	1573	247.24621264002	0
0	1575	247.319416616327	1
0	1577	247.418583282994	0
0	1579	247.881545242699	1
0	1581	247.92258212751	2
0	1584	248.021748794177	0
0	1586	250.035740346923	1
0	1588	250.13490701359	0
0	1590	252.924872532047	1
0	1592	253.024039198714	0
0	1594	253.43879618248	1
0	1596	253.537962849147	0
0	1598	253.607909155638	1
0	1600	253.689903872481	2
0	1603	253.789070539148	0
0	1605	253.880057814011	1
0	1607	253.979224480678	0
0	1609	254.284435597571	1
0	1611	254.383602264238	0
0	1613	254.475838319619	1
0	1615	254.575004986286	0
0	1617	254.956680118179	1
0	1619	255.055846784846	0
0	1621	255.188907520359	1
0	1623	255.288074187026	0
0	1625	255.314190534272	1
0	1627	255.413357200939	0
0	1629	255.456049114454	1
0	1631	255.555215781121	0
0	1633	255.894661652365	1
0	1635	255.993828319032	0
0	1637	256.918423983188	1
0	1639	256.964708458238	2
0	1642	257.063875124905	0
0	1644	258.168904461661	1
0	1646	258.268071128328	0
0	1648	258.44092357183	1
0	1650	258.540090238497	0
0	1652	259.06938469237	1
0	1654	259.118714208168	2
0	1657	259.217880874835	0
0	1659	260.072162786035	1
0	1661	260.171329452702	0
0	1663	260.221535389177	1
0	1665	260.320702055844	0
0	1667	260.54455699352	1
0	1669	260.624198953063	2
0	1672	260.72336561973	0
0	1674	261.135578293532	1
0	1676	261.234744960199	0
0	1678	262.481568300778	1
0	1680	262.580734967445	0
0	1682	262.662564753488	1
0	1684	262.761731420155	0
0	1686	265.173319128084	1
0	1688	265.272485794751	0
0	1690	265.554973199982	1
0	1692	265.654139866649	0
0	1694	266.045224532689	1
0	1696	266.144391199356	0
0	1698	266.20966992896	1
0	1700	266.308836595627	0
0	1702	266.574568075912	1
0	1704	266.673734742579	0
0	1706	266.683833511392	1
0	1708	266.783000178059	0
0	1710	266.910222138513	1
0	1712	267.00938880518	0
0	1714	267.731124620801	1
0	1716	267.830291287468	0
0	1718	268.835380098809	1
0	1720	268.934546765476	0
0	1722	269.262978988773	1
0	1724	269.36214565544	0
0	1726	270.867583064524	1
0	1728	270.966749731191	0
0	1730	270.967922307337	1
0	1732	270.99189326502	2
0	1735	271.076067281202	2
0	1738	271.175233947869	0
0	1740	271.201163336014	1
0	1742	271.252557415631	2
0	1745	271.351724082298	0
0	1747	271.400491541293	1
0	1749	271.49965820796	0
0	1751	272.409124999135	1
0	1753	272.508291665802	0
0	1755	272.653598307456	1
0	1757	272.752764974123	0
0	1759	272.854656472765	1
0	1761	272.953823139432	0
0	1763	273.045408134976	1
0	1765	273.144574801643	0
0	1767	273.163633639308	1
0	1769	273.262800305975	0
0	1771	273.374651717587	1
0	1773	273.473818384254	0
0	1775	274.029468353646	1
0	1777	274.128635020313	0
0	1779	274.415293560953	1
0	1781	274.51446022762	0
0	1783	274.722959972565	1
0	1785	274.822126639232	0
0	1787	275.488881981023	1
0	1789	275.58804864769	0
0	1791	276.057721921229	1
0	1793	276.156888587896	0
0	1795	276.390903697848	1
0	1797	276.490070364515	0
0	1799	277.231659151766	1
0	1801	277.302405711984	2
0	1804	277.335266384855	2
0	1807	277.434433051522	0
0	1809	277.842821651907	1
0	1811	277.941988318574	0
0	1813	277.961229793064	1
0	1815	278.060396459731	0
0	1817	278.23238463376	1
0	1819	278.331551300427	0
0	1821	278.479855606678	1
0	1823	278.579022273345	0
0	1825	278.612485787472	1
0	1827	278.648459266574	2
0	1830	278.747625933241	0
0	1832	278.978287143767	1
0	1834	279.077453810434	0
0	1836	279.43542731015	1
0	1838	279.534593976817	0
0	1840	279.641230647989	1
0	1842	279.740397314656	0
0	1844	280.24321588694	1
0	1846	280.342382553607	0
0	1848	281.610173441138	1
0	1850	281.709340107805	0
0	1852	281.733334835573	1
0	1854	281.83250150224	0
0	1856	282.228789174817	1
0	1858	282.327955841484	0
0	1860	283.62154122306	1
0	1862	283.720707889727	0
0	1864	283.819872177854	1
0	1866	283.919038844521	0
0	1868	284.098295158699	1
0	1870	284.197461825366	0
0	1872	286.136301855369	1
0	1874	286.235468522036	0
0	1876	286.46853055764	1
0	1878	286.567697224307	0
0	1880	286.685161085283	1
0	1882	286.78432775195	0
0	1884	286.967969614134	1
0	1886	287.067136280801	0
0	1888	287.836101594078	1
0	1890	287.935268260745	0
0	1892	288.809708144818	1
0	1894	288.908874811485	0
0	1896	289.014014448632	1
0	1898	289.113181115299	0
0	1900	290.253521507105	1
0	1902	290.352688173772	0
0	1904	291.055736299466	1
0	1906	291.154902966133	0
0	1908	291.270255147713	1
0	1910	291.36942181438	0
0	1912	291.51497438579	1
0	1914	291.614141052457	0
0	1916	291.695792721099	1
0	1918	291.783841380947	2
0	1921	291.883008047614	0
0	1923	292.983940975672	1
0	1925	293.083107642339	0
0	1927	294.842546787541	1
0	1929	294.941713454208	0
0	1931	295.122107373472	1
0	1933	295.221274040139	0
0	1935	295.910326624647	1
0	1937	296.009493291314	0
0	1939	296.460407484969	1
0	1941	296.559574151636	0
0	1943	296.986743905258	1
0	1945	297.085910571925	0
0	1947	297.741712231091	1
0	1949	297.840878897758	0
0	1951	298.5626229818	1
0	1953	298.661789648467	0
0	1955	298.985187963403	1
0	1957	299.08435463007	0
0	1959	300.315654721667	1
0	1961	300.414821388334	0
0	1963	302.113677509564	1
0	1965	302.212844176231	0
0	1967	302.32950578989	1
0	1969	302.428672456557	0
0	1971	302.632260724806	1
0	1973	302.731427391473	0
0	1975	302.972456623394	1
0	1977	303.071623290061	0
0	1979	303.437766563928	1
0	1981	303.536933230595	0
0	1983	303.590872143356	1
0	1985	303.690038810023	0
0	1987	305.012894319935	1
0	1989	305.112060986602	0
0	1991	305.25868017497	1
0	1993	305.357846841637	0
0	1995	306.472143922601	1
0	1997	306.571310589268	0
0	1999	306.963621807912	1
0	2001	307.002633221395	2
0	2004	307.079793144599	2
0	2007	307.178959811266	0
0	2009	307.452664144124	1
0	2011	307.551830810791	0
0	2013	307.982769443175	1
0	2015	308.081936109842	0
0	2017	309.329500551262	1
0	2019	309.428667217929	0
0	2021	309.706453046729	1
0	2023	309.805619713396	0
0	2025	309.995300162092	1
0	2027	310.094466828759	0
0	2029	310.108636392535	1
0	2031	310.207803059202	0
0	2033	311.043352515808	1
0	2035	311.142519182475	0
0	2037	311.644945096334	1
0	2039	311.744111763001	0
0	2041	312.7726314957	1
0	2043	312.871798162367	0
0	2045	313.175334549611	1
0	2047	313.186578936353	2
0	2049	313.228396701827	2
0	2053	313.327563368494	0
0	2055	313.540977141836	1
0	2057	313.640143808503	0
0	2059	314.756786305569	1
0	2061	314.855952972236	0
0	2063	315.020960315971	1
0	2065	315.120126982638	0
0	2067	315.28440062167	1
0	2069	315.383567288337	0
0	2071	315.888173277829	1
0	2073	315.987339944496	0
0	2075	316.154028286649	1
0	2077	316.253194953316	0
0	2079	316.502591454567	1
0	2081	316.601758121234	0
0	2083	317.400569668905	1
0	2085	317.499736335572	0
0	2087	318.092438401395	1
0	2089	318.191605068062	0
0	2091	318.702757716412	1
0	2093	318.801924383079	0
0	2095	318.880047185082	1
0	2097	318.979213851749	0
0	2099	319.609003245301	1
0	2101	319.708169911968	0
0	2103	320.209125752556	1
0	2105	320.280873228332	2
0	2108	320.380039894999	0
0	2110	321.017725443648	1
0	2112	321.058310943138	2
0	2115	321.157477609805	0
0	2117	321.742193675062	1
0	2119	321.841360341729	0
0	2121	322.955350841902	1
0	2123	323.054517508569	0
0	2125	323.448294993235	1
0	2127	323.451882075425	2
0	2130	323.551048742092	0
0	2132	323.561366102819	1
0	2134	323.660532769486	0
0	2136	323.845625543014	1
0	2138	323.944792209681	0
0	2140	324.448246420567	1
0	2142	324.547413087234	0
0	2144	325.064068713968	1
0	2146	325.163235380635	0
0	2148	325.846966891484	1
0	2150	325.93896935105	2
0	2153	325.954244687473	2
0	2156	326.05341135414	0
0	2158	326.591582534159	1
0	2160	326.690749200826	0
0	2162	326.758017646874	1
0	2164	326.812976040267	2
0	2167	326.912142706934	0
0	2169	327.218723791696	1
0	2171	327.317890458363	0
0	2173	328.832521836042	1
0	2175	328.931688502709	0
0	2177	329.363660980492	1
0	2179	329.422331379516	2
0	2182	329.521498046183	0
0	2184	330.110158370539	1
0	2186	330.209325037206	0
0	2188	330.233078725001	1
0	2190	330.332245391668	0
0	2192	330.92735418666	1