version 3
run PureAlohaExperiment-1-20250302-16:21:59-14228
attr configname PureAlohaExperiment
attr datetime 20250302-16:21:59
attr datetimef 20250302-162159
attr experiment PureAlohaExperiment
attr inifile omnetpp.ini
attr iterationvars "$numHosts=10, $iaMean=2"
attr iterationvarsd numHosts=10/iaMean=2
attr iterationvarsf numHosts=10,iaMean=2-
attr measurement "$numHosts=10, $iaMean=2"
attr network Aloha
attr processid 14228
attr repetition 0
attr replication #0
attr resultdir results
attr runnumber 1
attr seedset 1
itervar iaMean 2
itervar numHosts 10
config description "Channel utilization in the function of packet generation frequency"
config repeat 1
config sim-time-limit 90min
config Aloha.numHosts 10
config Aloha.host[*].iaTime exponential(2s)
config network Aloha
config Aloha.numHosts 20
config Aloha.slotTime 0s
config Aloha.txRate 9.6kbps
config Aloha.host[*].pkLenBits 952b
config **.x "uniform(0m, 1000m)"
config **.y "uniform(0m, 1000m)"
config **.animationHoldTimeOnCollision 0s
config **.idleAnimationSpeed 1
config **.transmissionEdgeAnimationSpeed 1e-6
config **.midTransmissionAnimationSpeed 1e-1

vector 0 Aloha.server serverChannelState:vector ETV
attr enum IDLE=0,TRANSMISSION=1,COLLISION=2
attr recordingmode vector
attr source channelState
attr title "Channel state"
vector 1 Aloha.server channelUtilization:vector ETV
attr interpolationmode linear
attr recordingmode vector
attr source timeavg(receive)
attr title "channel utilization"
vector 2 Aloha.host[0] radioState:vector ETV
attr enum IDLE=0,TRANSMIT=1
attr recordingmode vector
attr source state
attr title "Radio state"
vector 3 Aloha.host[1] radioState:vector ETV
attr enum IDLE=0,TRANSMIT=1
attr recordingmode vector
attr source state
attr title "Radio state"
vector 4 Aloha.host[2] radioState:vector ETV
attr enum IDLE=0,TRANSMIT=1
attr recordingmode vector
attr source state
attr title "Radio state"
vector 5 Aloha.host[3] radioState:vector ETV
attr enum IDLE=0,TRANSMIT=1
attr recordingmode vector
attr source state
attr title "Radio state"
vector 6 Aloha.host[4] radioState:vector ETV
attr enum IDLE=0,TRANSMIT=1
attr recordingmode vector
attr source state
attr title "Radio state"
vector 7 Aloha.host[5] radioState:vector ETV
attr enum IDLE=0,TRANSMIT=1
attr recordingmode vector
attr source state
attr title "Radio state"
vector 8 Aloha.host[6] radioState:vector ETV
attr enum IDLE=0,TRANSMIT=1
attr recordingmode vector
attr source state
attr title "Radio state"
vector 9 Aloha.host[7] radioState:vector ETV
attr enum IDLE=0,TRANSMIT=1
attr recordingmode vector
attr source state
attr title "Radio state"
vector 10 Aloha.host[8] radioState:vector ETV
attr enum IDLE=0,TRANSMIT=1
attr recordingmode vector
attr source state
attr title "Radio state"
vector 11 Aloha.host[9] radioState:vector ETV
attr enum IDLE=0,TRANSMIT=1
attr recordingmode vector
attr source state
attr title "Radio state"
0	0	0	0
0	2	0.055540373161	1
0	4	0.154707039828	0
0	6	0.457449195799	1
0	8	0.521633873083	2
0	11	0.62080053975	0
0	13	1.172009623077	1
0	15	1.234889139405	2
0	18	1.334055806072	0
0	20	1.486982596536	1
0	22	1.528916721345	2
0	25	1.628083388012	0
0	27	1.636601641416	1
0	29	1.735768308083	0
0	31	1.778662284482	1
0	33	1.877828951149	0
0	35	2.069629821781	1
0	37	2.168796488448	0
0	39	2.220161283878	1
0	41	2.25681516251	2
0	43	2.311760455635	2
0	47	2.397866752427	2
0	50	2.497033419094	0
0	52	2.691819897344	1
0	54	2.790986564011	0
0	56	3.163004367131	1
0	58	3.262171033798	0
0	60	4.209396869956	1
0	62	4.308563536623	0
0	64	4.686150910799	1
0	66	4.722426444068	2
0	68	4.749433806069	2
0	72	4.848600472736	0
0	74	4.905935241737	1
0	76	5.005101908404	0
0	78	5.104164333667	1
0	80	5.148393569099	2
0	82	5.182860965586	2
0	86	5.282027632253	0
0	88	5.327235994077	1
0	90	5.426402660744	0
0	92	5.602624547534	1
0	94	5.701791214201	0
0	96	5.798653238661	1
0	98	5.823932450527	2
0	101	5.919822729217	2
0	104	6.018989395884	0
0	106	6.226040100195	1
0	108	6.325206766862	0
0	110	7.18410648577	1
0	112	7.283273152437	0
0	114	8.123412929687	1
0	116	8.143627179061	2
0	119	8.242793845728	0
0	121	8.376550536611	1
0	123	8.38250290992	2
0	126	8.481669576587	0
0	128	8.489797382542	1
0	130	8.588964049209	0
0	132	8.742583821578	1
0	134	8.790578531618	2
0	137	8.889745198285	0
0	139	9.029137738641	1
0	141	9.128304405308	0
0	143	9.219782125117	1
0	145	9.318948791784	0
0	147	9.321704849163	1
0	149	9.42087151583	0
0	151	9.537052495401	1
0	153	9.573682831231	2
0	155	9.625531200498	2
0	159	9.724697867165	0
0	161	9.886483354119	1
0	163	9.985650020786	0
0	165	10.005229621697	1
0	167	10.022565176785	2
0	170	10.107625874589	2
0	173	10.173933888488	2
0	176	10.273100555155	0
0	178	10.449954851887	1
0	180	10.549121518554	0
0	182	10.788588176076	1
0	184	10.887754842743	0
0	186	11.196263670083	1
0	188	11.29543033675	0
0	190	11.740789252473	1
0	192	11.83995591914	0
0	194	12.004485691496	1
0	196	12.103652358163	0
0	198	12.163284304442	1
0	200	12.262450971109	0
0	202	12.498197745263	1
0	204	12.59736441193	0
0	206	12.694835479444	1
0	208	12.710483898579	2
0	211	12.809650565246	0
0	213	12.895475398166	1
0	215	12.962039851363	2
0	218	13.011904972294	2
0	221	13.099742122994	2
0	224	13.198908789661	0
0	226	13.271936955895	1
0	228	13.285319163575	2
0	231	13.384485830242	0
0	233	13.401141767041	1
0	235	13.500308433708	0
0	237	13.645722365029	1
0	239	13.744889031696	0
0	241	13.999398095663	1
0	243	14.066290925589	2
0	246	14.165457592256	0
0	248	14.179032209541	1
0	250	14.182670786802	2
0	253	14.281837453469	0
0	255	14.317312786319	1
0	257	14.32809163381	2
0	259	14.377154574258	2
0	263	14.456492318915	2
0	266	14.555658985582	0
0	268	14.577711690633	1
0	270	14.6768783573	0
0	272	14.951891961322	1
0	274	15.051058627989	0
0	276	15.294135973982	1
0	278	15.376894714366	2
0	281	15.476061381033	0
0	283	15.653494017377	1
0	285	15.752660684044	0
0	287	15.761354023465	1
0	289	15.860520690132	0
0	291	15.862338871493	1
0	293	15.96150553816	0
0	295	16.688083295235	1
0	297	16.746170537724	2
0	300	16.845337204391	0
0	302	17.162692361108	1
0	304	17.23207308164	2
0	307	17.331239748307	0
0	309	17.529536822552	1
0	311	17.628703489219	0
0	313	17.668689624128	1
0	315	17.767856290795	0
0	317	17.895992872009	1
0	319	17.995159538676	0
0	321	18.058221430077	1
0	323	18.157388096744	0
0	325	18.233561322163	1
0	327	18.33272798883	0
0	329	18.373303490778	1
0	331	18.472470157445	0
0	333	18.520528265834	1
0	335	18.619694932501	0
0	337	18.690766212338	1
0	339	18.789932879005	0
0	341	19.111051229647	1
0	343	19.210217896314	0
0	345	19.267721891862	1
0	347	19.366888558529	0
0	349	19.381539101815	1
0	351	19.401749089918	2
0	354	19.500915756585	0
0	356	19.541532224213	1
0	358	19.603404366351	2
0	361	19.702571033018	0
0	363	19.857501694724	1
0	365	19.956668361391	0
0	367	20.049480400949	1
0	369	20.148647067616	0
0	371	20.174191624929	1
0	373	20.273358291596	0
0	375	20.436371460968	1
0	377	20.535538127635	0
0	379	20.568941543697	1
0	381	20.574925282489	2
0	384	20.674091949156	0
0	386	21.036375959483	1
0	388	21.13554262615	0
0	390	21.160890356497	1
0	392	21.196051516243	2
0	394	21.23786602173	2
0	398	21.337032688397	0
0	400	21.982293667547	1
0	402	22.081460334214	0
0	404	22.328713350652	1
0	406	22.427880017319	0
0	408	22.541171259623	1
0	410	22.64033792629	0
0	412	22.72366161786	1
0	414	22.822828284527	0
0	416	23.026518779407	1
0	418	23.122791849325	2
0	421	23.221958515992	0
0	423	23.533487866912	1
0	425	23.632654533579	0
0	427	23.63794777253	1
0	429	23.737114439197	0
0	431	23.812426947968	1
0	433	23.828680592061	2
0	436	23.927847258728	0
0	438	24.289342915565	1
0	440	24.388509582232	0
0	442	24.580948841734	1
0	444	24.608686353	2
0	447	24.707853019667	0
0	449	24.751036753106	1
0	451	24.850203419773	0
0	453	25.457813741078	1
0	455	25.556980407745	0
0	457	25.588526836684	1
0	459	25.604371810561	2
0	462	25.703538477228	0
0	464	25.704906759552	1
0	466	25.804073426219	0
0	468	26.011425368633	1
0	470	26.1105920353	0
0	472	26.380662522794	1
0	474	26.460254107003	2
0	477	26.501333609374	2
0	479	26.516147636493	2
0	483	26.61531430316	0
0	485	27.24961704485	1
0	487	27.348783711517	0
0	489	27.579451218001	1
0	491	27.678617884668	0
0	493	27.734857382657	1
0	495	27.834024049324	0
0	497	28.393313081214	1
0	499	28.466789621267	2
0	502	28.552340873637	2
0	504	28.555089722697	2
0	508	28.654256389364	0
0	510	28.692203023506	1
0	512	28.702139129098	2
0	515	28.801305795765	0
0	517	28.903107105505	1
0	519	29.002273772172	0
0	521	29.195180236041	1
0	523	29.294346902708	0
0	525	29.533272622797	1
0	527	29.632439289464	0
0	529	29.655914916901	1
0	531	29.755081583568	0
0	533	29.918857243555	1
0	535	29.928689608667	2
0	538	30.027856275334	0
0	540	30.128926178267	1
0	542	30.228092844934	0
0	544	30.38140576377	1
0	546	30.480572430437	0
0	548	30.724333701403	1
0	550	30.776231066055	2
0	553	30.875397732722	0
0	555	31.373837718836	1
0	557	31.396768815538	2
0	560	31.495935482205	0
0	562	31.586390545299	1
0	564	31.605427856694	2
0	567	31.704594523361	0
0	569	31.93304816659	1
0	571	31.971969142034	2
0	574	32.071135808701	0
0	576	32.563529734553	1
0	578	32.66269640122	0
0	580	32.691289993458	1
0	582	32.790456660125	0
0	584	33.120095326397	1
0	586	33.178798179447	2
0	589	33.265290635692	2
0	592	33.331521867008	2
0	595	33.430688533675	0
0	597	33.431941786577	1
0	599	33.531108453244	0
0	601	33.618133555764	1
0	603	33.717300222431	0
0	605	33.723049126527	1
0	607	33.822215793194	0
0	609	33.915971002511	1
0	611	34.015137669178	0
0	613	34.248349267812	1
0	615	34.347515934479	0
0	617	34.6794594015	1
0	619	34.778626068167	0
0	621	35.135816214426	1
0	623	35.234982881093	0
0	625	35.569590976546	1
0	627	35.668757643213	0
0	629	35.935335135791	1
0	631	35.990042111225	2
0	634	36.052599428018	2
0	637	36.097977843917	2
0	640	36.197144510584	0
0	642	36.317727082122	1
0	644	36.416893748789	0
0	646	36.785529339195	1
0	648	36.846536311251	2
0	651	36.945702977918	0
0	653	36.963489486613	1
0	655	37.06265615328	0
0	657	37.081204864418	1
0	659	37.166323130261	2
0	662	37.265489796928	0
0	664	37.297385262165	1
0	666	37.396551928832	0
0	668	37.689069889075	1
0	670	37.721224769067	2
0	673	37.820391435734	0
0	675	37.951893876396	1
0	677	38.023238439222	2
0	680	38.122405105889	0
0	682	38.440313274801	1
0	684	38.539479941468	0
0	686	38.620922389542	1
0	688	38.720089056209	0
0	690	38.865405707082	1
0	692	38.964572373749	0
0	694	39.015587684203	1
0	696	39.11475435087	0
0	698	39.342879281594	1
0	700	39.442045948261	0
0	702	39.725317800581	1
0	704	39.73704174884	2
0	707	39.836208415507	0
0	709	39.838578024758	1
0	711	39.937744691425	0
0	713	40.364022412709	1
0	715	40.393872550619	2
0	717	40.399221469043	2
0	719	40.431306823158	2
0	724	40.530473489825	0
0	726	40.63494618888	1
0	728	40.734112855547	0
0	730	41.054145588587	1
0	732	41.153312255254	0
0	734	41.38431772963	1
0	736	41.483484396297	0
0	738	41.668296973524	1
0	740	41.741444132531	2
0	743	41.840610799198	0
0	745	42.23528705156	1
0	747	42.334453718227	0
0	749	42.435576097296	1
0	751	42.534742763963	0
0	753	42.54001355294	1
0	755	42.57287188361	2
0	758	42.672038550277	0
0	760	42.850034140036	1
0	762	42.937435657496	2
0	765	43.036602324163	0
0	767	43.076763125291	1
0	769	43.090741898967	2
0	772	43.189908565634	0
0	774	43.243029801934	1
0	776	43.327357528773	2
0	779	43.42652419544	0
0	781	43.483953879962	1
0	783	43.550890584099	2
0	785	43.569352191957	2
0	789	43.668518858624	0
0	791	43.883990488448	1
0	793	43.983157155115	0
0	795	44.10238199716	1
0	797	44.185329601492	2
0	800	44.215343018118	2
0	803	44.287325576201	2
0	806	44.386492242868	0
0	808	44.841811873858	1
0	810	44.882920799948	2
0	813	44.982087466615	0
0	815	45.009046097533	1
0	817	45.021034782062	2
0	820	45.120201448729	0
0	822	45.230294368471	1
0	824	45.329461035138	0
0	826	45.385375565123	1
0	828	45.48454223179	0
0	830	45.760556460066	1
0	832	45.832477972463	2
0	835	45.861621928965	2
0	838	45.960788595632	0
0	840	45.99608923031	1
0	842	46.051768162395	2
0	845	46.139284096484	2
0	848	46.238450763151	0
0	850	46.969148037575	1
0	852	47.068314704242	0
0	854	47.233252061687	1
0	856	47.332418728354	0
0	858	47.370065413996	1
0	860	47.469232080663	0
0	862	47.64903879676	1
0	864	47.694260630471	2
0	867	47.793427297138	0
0	869	47.885100175215	1
0	871	47.915782200437	2
0	874	47.985550461056	2
0	877	48.084717127723	0
0	879	48.477731977724	1
0	881	48.514736714496	2
0	884	48.613903381163	0
0	886	48.672799051353	1
0	888	48.77196571802	0
0	890	49.595494019212	1
0	892	49.694660685879	0
0	894	49.885390115728	1
0	896	49.984556782395	0
0	898	50.385486072532	1
0	900	50.475291567122	2
0	903	50.542335051597	2
0	906	50.641501718264	0
0	908	50.822471626374	1
0	910	50.921638293041	0
0	912	50.973418047158	1
0	914	51.072584713825	0
0	916	51.366003778448	1
0	918	51.375937670173	2
0	921	51.47510433684	0
0	923	51.598680034685	1
0	925	51.691035794588	2
0	928	51.790202461255	0
0	930	51.804369594802	1
0	932	51.903536261469	0
0	934	52.030755283594	1
0	936	52.040208411568	2
0	938	52.04892483523	2
0	942	52.148091501897	0
0	944	52.22107156517	1
0	946	52.266445594313	2
0	949	52.363704927557	2
0	952	52.375535863477	2
0	955	52.474702530144	0
0	957	52.772185669387	1
0	959	52.871352336054	0
0	961	52.877228149892	1
0	963	52.944679134048	2
0	966	53.043845800715	0
0	968	53.081601367669	1
0	970	53.180768034336	0
0	972	53.206038983202	1
0	974	53.234346128408	2
0	977	53.333512795075	0
0	979	53.482904463847	1
0	981	53.582071130514	0
0	983	53.583200228907	1
0	985	53.678135334746	2
0	988	53.777302001413	0
0	990	54.279369806773	1
0	992	54.37853647344	0
0	994	54.378811025099	1
0	996	54.477977691766	0
0	998	54.617069876422	1
0	1000	54.672423937624	2
0	1003	54.771590604291	0
0	1005	54.925285734956	1
0	1007	54.97117189364	2
0	1010	55.070338560307	0
0	1012	55.120166291775	1
0	1014	55.168351196865	2
0	1016	55.1707737411	2
0	1020	55.269940407767	0
0	1022	55.366377624105	1
0	1024	55.400411356989	2
0	1027	55.499578023656	0
0	1029	55.606028173817	1
0	1031	55.620081997108	2
0	1033	55.70483372711	2
0	1037	55.804000393777	0
0	1039	55.906625055479	1
0	1041	56.005791722146	0
0	1043	56.057661013948	1
0	1045	56.156827680615	0
0	1047	56.632868670775	1
0	1049	56.732035337442	0
0	1051	57.103034810225	1
0	1053	57.202201476892	0
0	1055	57.241060743942	1
0	1057	57.280508446442	2
0	1060	57.379675113109	0
0	1062	57.438828604834	1
0	1064	57.537995271501	0
0	1066	57.836887311342	1
0	1068	57.911784180202	2
0	1071	57.943128600086	2
0	1074	58.042295266753	0
0	1076	58.701754612603	1
0	1078	58.80092127927	0
0	1080	58.858338957042	1
0	1082	58.957505623709	0
0	1084	59.142003070418	1
0	1086	59.241169737085	0
0	1088	59.278671543109	1
0	1090	59.377838209776	0
0	1092	59.47293024286	1
0	1094	59.572096909527	0
0	1096	59.717285919034	1
0	1098	59.758189772929	2
0	1101	59.857356439596	0
0	1103	59.897437312441	1
0	1105	59.996603979108	0
0	1107	60.521680093036	1
0	1109	60.620846759703	0
0	1111	61.049876861074	1
0	1113	61.149043527741	0
0	1115	61.189763744508	1
0	1117	61.288930411175	0
0	1119	61.483895961708	1
0	1121	61.542910881154	2
0	1124	61.642077547821	0
0	1126	61.806319010908	1
0	1128	61.905485677575	0
0	1130	62.405659884569	1
0	1132	62.485328581745	2
0	1135	62.512544675969	2
0	1138	62.611711342636	0
0	1140	62.733697530196	1
0	1142	62.798038452811	2
0	1144	62.816071445542	2
0	1148	62.915238112209	0
0	1150	62.971535523274	1
0	1152	63.070702189941	0
0	1154	63.148589051675	1
0	1156	63.247755718342	0
0	1158	63.359292188498	1
0	1160	63.423318098708	2
0	1163	63.522484765375	0
0	1165	63.733556279811	1
0	1167	63.832722946478	0
0	1169	63.853732179084	1
0	1171	63.952898845751	0
0	1173	64.024834829578	1
0	1175	64.124001496245	0
0	1177	64.33700006456	1
0	1179	64.345499625614	2
0	1182	64.444666292281	0
0	1184	64.581941088829	1
0	1186	64.671936332903	2
0	1189	64.719909794938	2
0	1191	64.739552178801	2
0	1195	64.838718845468	0
0	1197	65.193259333434	1
0	1199	65.292426000101	0
0	1201	65.297453876899	1
0	1203	65.396620543566	0
0	1205	65.446746339723	1
0	1207	65.54591300639	0
0	1209	65.695441242823	1
0	1211	65.746480398531	2
0	1214	65.845647065198	0
0	1216	65.868505796426	1
0	1218	65.943961632536	2
0	1221	66.043128299203	0
0	1223	66.045404459068	1
0	1225	66.105379259285	2
0	1228	66.194067029411	2
0	1230	66.199611962633	2
0	1234	66.2987786293	0
0	1236	66.404866958921	1
0	1238	66.504033625588	0
0	1240	66.608027229138	1
0	1242	66.707193895805	0
0	1244	66.747633119859	1
0	1246	66.82569699404	2
0	1249	66.924681929532	2
0	1252	66.933973421246	2
0	1255	67.033140087913	0
0	1257	67.571003315952	1
0	1259	67.670169982619	0
0	1261	68.486954077221	1
0	1263	68.511341844868	2
0	1266	68.589363488338	2
0	1269	68.643664953	2
0	1272	68.742831619667	0
0	1274	68.87930598118	1
0	1276	68.88710942038	2
0	1279	68.986276087047	0
0	1281	69.221648805764	1
0	1283	69.320815472431	0
0	1285	69.47318621336	1
0	1287	69.560229442526	2
0	1290	69.659396109193	0
0	1292	70.538691207143	1
0	1294	70.63785787381	0
0	1296	70.693873067045	1
0	1298	70.793039733712	0
0	1300	70.800189054904	1
0	1302	70.899355721571	0
0	1304	71.15465980385	1
0	1306	71.253826470517	0
0	1308	71.455946781723	1
0	1310	71.55511344839	0
0	1312	71.582464665157	1
0	1314	71.58321306527	2
0	1316	71.642824909206	2
0	1320	71.741991575873	0
0	1322	72.054866218407	1
0	1324	72.154032885074	0
0	1326	72.216471568923	1
0	1328	72.31563823559	0
0	1330	72.329165369879	1
0	1332	72.428332036546	0
0	1334	72.530734451576	1
0	1336	72.629901118243	0
0	1338	72.794710334491	1
0	1340	72.845590000828	2
0	1343	72.944756667495	0
0	1345	73.577303198702	1
0	1347	73.643605763643	2
0	1350	73.74277243031	0
0	1352	74.072316382356	1
0	1354	74.171483049023	0
0	1356	74.197854637384	1
0	1358	74.297021304051	0
0	1360	74.313091112698	1
0	1362	74.350000711428	2
0	1365	74.449167378095	0
0	1367	75.139563334631	1
0	1369	75.238730001298	0
0	1371	75.303275760842	1
0	1373	75.402442427509	0
0	1375	75.405792202165	1
0	1377	75.504958868832	0
0	1379	76.100172176291	1
0	1381	76.199338842958	0
0	1383	76.227347950008	1
0	1385	76.275029488975	2
0	1388	76.374196155642	0
0	1390	76.422989799976	1
0	1392	76.464280405341	2
0	1395	76.563447072008	0
0	1397	76.564665895586	1
0	1399	76.663832562253	0
0	1401	76.835986592885	1
0	1403	76.935153259552	0
0	1405	77.766412919515	1
0	1407	77.865579586182	0
0	1409	78.117163620139	1
0	1411	78.130634342481	2
0	1413	78.180765495959	2
0	1417	78.279932162626	0
0	1419	78.380831479249	1
0	1421	78.479998145916	0
0	1423	78.892398739544	1
0	1425	78.991565406211	0
0	1427	79.062504188989	1
0	1429	79.116009414369	2
0	1431	79.135254987733	2
0	1435	79.2344216544	0
0	1437	79.234443499836	1
0	1439	79.333610166503	0
0	1441	79.497158511965	1
0	1443	79.504525654689	2
0	1445	79.543884522409	2
0	1449	79.643051189076	0
0	1451	79.666048961846	1
0	1453	79.765215628513	0
0	1455	79.790803955868	1
0	1457	79.886559749473	2
0	1460	79.933490313932	2
0	1463	80.032656980599	0
0	1465	80.090875531836	1
0	1467	80.159086644357	2
0	1470	80.239204774231	2
0	1473	80.338371440898	0
0	1475	81.052123446413	1
0	1477	81.15129011308	0
0	1479	81.15185895296	1
0	1481	81.181555926708	2
0	1483	81.216415258433	2
0	1487	81.3155819251	0
0	1489	81.53831953985	1
0	1491	81.637486206517	0
0	1493	81.668368508399	1
0	1495	81.767535175066	0
0	1497	81.876122386192	1
0	1499	81.96671425062	2
0	1502	82.065880917287	0
0	1504	82.25610609686	1
0	1506	82.355272763527	0
0	1508	82.444610763933	1
0	1510	82.528659641264	2
0	1513	82.627826307931	0
0	1515	82.885620806248	1
0	1517	82.984787472915	0
0	1519	83.166171176203	1
0	1521	83.26533784287	0
0	1523	83.473262448678	1
0	1525	83.572429115345	0
0	1527	83.645901946254	1
0	1529	83.745068612921	0
0	1531	83.768516029111	1
0	1533	83.867682695778	0
0	1535	84.072536847304	1
0	1537	84.171703513971	0
0	1539	84.448151660215	1
0	1541	84.547318326882	0
0	1543	85.087914504136	1
0	1545	85.100114642408	2
0	1548	85.199281309075	0
0	1550	85.247629193814	1
0	1552	85.346795860481	0
0	1554	85.489684150637	1
0	1556	85.588850817304	0
0	1558	85.671381199379	1
0	1560	85.770547866046	0
0	1562	85.944534691277	1
0	1564	86.043701357944	0
0	1566	86.40356092959	1
0	1568	86.502727596257	0
0	1570	86.694765603219	1
0	1572	86.793932269886	0
0	1574	87.002476724837	1
0	1576	87.101643391504	0
0	1578	87.167826553729	1
0	1580	87.266993220396	0
0	1582	87.644110617149	1
0	1584	87.743277283816	0
0	1586	88.083572166819	1
0	1588	88.182738833486	0
0	1590	88.392857875489	1
0	1592	88.399808127035	2
0	1594	88.416234549094	2
0	1596	88.45329302628	2
0	1601	88.552459692947	0
0	1603	88.895745378716	1
0	1605	88.912317913465	2
0	1607	88.988079223266	2
0	1611	89.026222403673	2
0	1614	89.12538907034	0
0	1616	89.30508071176	1
0	1618	89.404247378427	0
0	1620	89.618196116282	1
0	1622	89.717362782949	0
0	1624	89.839708100949	1
0	1626	89.938874767616	0
0	1628	90.062828935494	1
0	1630	90.161995602161	0
0	1632	90.289263794258	1
0	1634	90.306603622281	2
0	1636	90.343539161062	2
0	1640	90.442705827729	0
0	1642	90.541426480173	1
0	1644	90.64059314684	0
0	1646	90.887497113712	1
0	1648	90.942230810052	2
0	1651	91.041397476719	0
0	1653	91.145818232838	1
0	1655	91.244984899505	0
0	1657	91.651691760748	1
0	1659	91.750858427415	0
0	1661	92.175414691316	1
0	1663	92.274581357983	0
0	1665	92.33563424703	1
0	1667	92.434800913697	0
0	1669	92.611471751215	1
0	1671	92.710638417882	0
0	1673	92.71148712719	1
0	1675	92.810653793857	0
0	1677	92.909321688193	1
0	1679	93.00848835486	0
0	1681	93.119321975285	1
0	1683	93.218488641952	0
0	1685	93.232744449616	1
0	1687	93.250489251273	2
0	1690	93.34965591794	0
0	1692	93.451634209916	1
0	1694	93.550800876583	0
0	1696	94.016474047633	1
0	1698	94.1156407143	0
0	1700	94.149283796977	1
0	1702	94.212346294399	2
0	1705	94.311512961066	0
0	1707	94.422033442709	1
0	1709	94.492172377513	2
0	1712	94.522004317211	2
0	1715	94.60429902923	2
0	1718	94.703465695897	0
0	1720	94.910479509091	1
0	1722	95.009646175758	0
0	1724	95.119526619341	1
0	1726	95.135343882161	2
0	1729	95.234510548828	0
0	1731	95.376251875124	1
0	1733	95.475418541791	0
0	1735	95.647089751364	1
0	1737	95.746256418031	0
0	1739	95.806637572635	1
0	1741	95.823858127208	2
0	1744	95.923024793875	0
0	1746	95.954716852174	1
0	1748	96.031825141209	2
0	1751	96.130991807876	0
0	1753	96.249175271588	1
0	1755	96.348341938255	0
0	1757	96.524044751825	1
0	1759	96.623211418492	0
0	1761	97.428791740073	1
0	1763	97.52795840674	0
0	1765	97.602558497864	1
0	1767	97.701725164531	0
0	1769	97.788541031917	1
0	1771	97.840966878605	2
0	1774	97.940133545272	0
0	1776	98.374283251202	1
0	1778	98.382429197176	2
0	1781	98.481595863843	0
0	1783	98.601343999319	1
0	1785	98.633947797062	2
0	1788	98.733114463729	0
0	1790	98.855836849564	1
0	1792	98.955003516231	0
0	1794	99.029306208231	1
0	1796	99.128472874898	0
0	1798	99.265254164104	1
0	1800	99.364420830771	0
0	1802	99.453405655843	1
0	1804	99.55257232251	0
0	1806	99.707941998056	1
0	1808	99.807108664723	0
0	1810	100.294880325094	1
0	1812	100.394046991761	0
0	1814	100.864860703856	1
0	1816	100.964027370523	0
0	1818	100.973375810469	1
0	1820	101.072542477136	0
0	1822	101.25435870628	1
0	1824	101.353525372947	0
0	1826	101.851768320357	1
0	1828	101.942138004473	2
0	1830	101.947608013821	2
0	1833	101.967128226813	2
0	1837	102.06629489348	0
0	1839	102.14485800214	1
0	1841	102.244024668807	0
0	1843	102.480008682543	1
0	1845	102.517246392247	2
0	1848	102.616413058914	0
0	1850	102.641396052163	1
0	1852	102.74056271883	0
0	1854	102.787445407485	1
0	1856	102.886612074152	0
0	1858	102.958294787598	1
0	1860	103.057461454265	0
0	1862	103.128621840036	1
0	1864	103.206890866064	2
0	1867	103.24562915459	2
0	1869	103.30118865997	2
0	1873	103.400355326637	0
0	1875	103.585029345126	1
0	1877	103.674430785103	2
0	1880	103.77359745177	0
0	1882	103.91320136461	1
0	1884	103.991433969251	2
0	1887	104.090600635918	0
0	1889	104.14103643573	1
0	1891	104.173046510308	2
0	1894	104.272213176975	0
0	1896	104.391310724291	1
0	1898	104.42287782817	2
0	1901	104.522044494837	0
0	1903	104.574617575048	1
0	1905	104.673784241715	0
0	1907	104.809301674208	1
0	1909	104.908468340875	0
0	1911	104.928568461804	1
0	1913	104.933192406061	2
0	1916	105.032359072728	0
0	1918	105.048959080585	1
0	1920	105.148125747252	0
0	1922	105.162180455069	1
0	1924	105.183764482192	2
0	1927	105.282931148859	0
0	1929	105.290091412453	1
0	1931	105.326303050817	2
0	1934	105.425469717484	0
0	1936	105.52893899542	1
0	1938	105.628105662087	0
0	1940	105.786480049715	1
0	1942	105.868931928917	2
0	1945	105.968098595584	0
0	1947	106.505374233647	1
0	1949	106.58059790201	2
0	1952	106.679764568677	0
0	1954	106.712964131969	1
0	1956	106.812130798636	0
0	1958	107.2345330609	1
0	1960	107.333699727567	0
0	1962	107.393816131007	1
0	1964	107.426036934545	2
0	1967	107.525203601212	0
0	1969	108.043624618264	1
0	1971	108.059329284355	2
0	1974	108.158495951022	0
0	1976	108.343527935339	1
0	1978	108.442694602006	0
0	1980	108.675470489972	1
0	1982	108.774637156639	0
0	1984	109.081392059651	1
0	1986	109.180558726318	0
0	1988	109.184052005149	1
0	1990	109.283218671816	0
0	1992	109.457706236353	1
0	1994	109.523429670683	2
0	1997	109.62259633735	0
0	1999	109.643135105824	1
0	2001	109.713160809967	2
0	2004	109.812327476634	0
0	2006	110.108993906204	1
0	2008	110.208160572871	0
0	2010	110.852065579234	1
0	2012	110.880107004203	2
0	2015	110.97927367087	0
0	2017	110.985610857804	1
0	2019	110.990247840538	2
0	2022	111.089414507205	0
0	2024	111.206126143485	1
0	2026	111.223546386759	2
0	2028	111.296518652587	2
0	2032	111.353618706938	2
0	2035	111.452785373605	0
0	2037	111.594079589329	1
0	2039	111.68329887215	2
0	2042	111.782465538817	0
0	2044	112.089059060933	1
0	2046	112.161908791256	2
0	2049	112.198954080768	2
0	2052	112.298120747435	0
0	2054	112.343047074843	1
0	2056	112.427025976182	2
0	2059	112.526192642849	0
0	2061	112.617061921419	1
0	2063	112.661909206002	2
0	2066	112.731852121119	2
0	2069	112.831018787786	0
0	2071	112.842291853652	1
0	2073	112.941458520319	0
0	2075	113.117068134961	1
0	2077	113.155213533877	2
0	2080	113.254380200544	0
0	2082	113.406249689067	1
0	2084	113.418485557522	2
0	2086	113.421467120483	2
0	2090	113.52063378715	0
0	2092	114.634415625525	1
0	2094	114.645490212613	2
0	2096	114.657539422671	2
0	2100	114.756706089338	0
0	2102	115.095677934213	1
0	2104	115.148562162892	2
0	2107	115.206223734013	2
0	2110	115.30539040068	0
0	2112	115.677224832844	1
0	2114	115.776391499511	0
0	2116	115.837571319167	1
0	2118	115.936737985834	0
0	2120	116.152155899721	1
0	2122	116.172142720267	2
0	2124	116.234194571462	2
0	2128	116.333361238129	0
0	2130	116.446625593811	1
0	2132	116.45286216261	2
0	2135	116.552028829277	0
0	2137	116.852001005372	1
0	2139	116.947747907588	2
0	2142	117.046914574255	0
0	2144	117.065687473942	1
0	2146	117.164854140609	0
0	2148	117.294509708733	1
0	2150	117.374504401424	2
0	2153	117.473671068091	0
0	2155	118.066796307037	1
0	2157	118.068107994653	2
0	2160	118.16727466132	0
0	2162	118.402346225105	1
0	2164	118.501512891772	0
0	2166	118.601296772729	1
0	2168	118.652464242542	2
0	2170	118.659511369469	2
0	2174	118.758678036136	0
0	2176	119.129234304416	1
0	2178	119.228400971083	0
0	2180	119.664110365052	1
0	2182	119.763277031719	0
0	2184	119.932029225433	1
0	2186	119.983324677295	2
0	2188	120.006248579357	2
0	2191	120.039184108933	2
0	2193	120.049101163077	2
0	2195	120.060554064959	2
0	2200	120.143309770625	2
0	2204	120.242476437292	0
0	2206	120.356589485539	1
0	2208	120.455756152206	0
0	2210	120.549370186323	1
0	2212	120.569896832027	2
0	2215	120.669063498694	0
0	2217	120.708477940802	1
0	2219	120.807644607469	0
0	2221	120.991489124005	1
0	2223	121.090655790672	0
0	2225	121.513685625598	1
0	2227	121.530946738593	2
0	2230	121.622930496174	2
0	2233	121.722097162841	0
0	2235	121.845210907781	1
0	2237	121.912332938219	2
0	2240	121.972662294543	2
0	2243	122.07182896121	0
0	2245	122.371494509117	1
0	2247	122.381895591349	2
0	2249	122.384759038253	2
0	2253	122.48392570492	0
0	2255	122.58686020541	1
0	2257	122.665906418672	2
0	2260	122.765073085339	0
0	2262	122.812396250718	1
0	2264	122.911562917385	0
0	2266	122.930735363955	1
0	2268	122.961181892451	2
0	2271	123.060348559118	0
0	2273	123.368715804947	1
0	2275	123.369621487232	2
0	2277	123.395127544859	2
0	2281	123.494294211526	0
0	2283	123.781032989866	1
0	2285	123.880199656533	0
0	2287	123.976377572347	1
0	2289	124.075544239014	0
0	2291	124.388131302691	1
0	2293	124.482132242683	2
0	2296	124.58129890935	0
0	2298	124.630724050714	1
0	2300	124.680309774407	2
0	2303	124.779476441074	0
0	2305	124.896056231124	1
0	2307	124.989481805423	2
0	2310	125.046693962451	2
0	2313	125.136355619877	2
0	2316	125.183775639955	2
0	2318	125.191027679752	2
0	2322	125.290194346419	0
0	2324	125.978600130723	1
0	2326	126.067139374024	2
0	2329	126.146071311336	2
0	2332	126.195130140365	2
0	2335	126.288450519607	2
0	2338	126.334773744843	2
0	2341	126.43394041151	0
0	2343	126.435967998725	1
0	2345	126.535134665392	0
0	2347	126.665048437628	1
0	2349	126.764215104295	0
0	2351	127.162400425469	1
0	2353	127.261567092136	0
0	2355	127.601494868021	1
0	2357	127.700661534688	0
0	2359	127.933906200353	1
0	2361	128.03307286702	0
0	2363	128.072213065515	1
0	2365	128.147627266801	2
0	2368	128.246793933468	0
0	2370	128.723903807726	1
0	2372	128.823070474393	0
0	2374	129.366013689123	1
0	2376	129.46518035579	0
0	2378	129.598670095279	1
0	2380	129.673110896642	2
0	2383	129.772277563309	0
0	2385	129.794785470902	1
0	2387	129.893952137569	0
0	2389	129.970154832254	1
0	2391	130.069321498921	0
0	2393	130.1336334717	1
0	2395	130.203681182459	2
0	2398	130.302847849126	0
0	2400	130.564064965372	1
0	2402	130.663231632039	0
0	2404	131.535156391712	1
0	2406	131.634323058379	0
0	2408	131.706008396287	1
0	2410	131.805175062954	0
0	2412	131.879389066402	1
0	2414	131.978555733069	0
0	2416	132.048921626237	1
0	2418	132.096673307842	2
0	2421	132.187300267225	2
0	2424	132.286466933892	0
0	2426	132.350800239304	1
0	2428	132.449966905971	0
0	2430	132.46406300553	1
0	2432	132.500852217218	2
0	2435	132.600018883885	0
0	2437	133.080809216709	1
0	2439	133.179975883376	0
0	2441	133.201414080366	1
0	2443	133.245286278675	2
0	2445	133.287691594356	2
0	2449	133.386858261023	0
0	2451	133.858012912436	1
0	2453	133.894885760732	2
0	2455	133.90877370789	2
0	2457	133.933018139213	2
0	2462	134.03218480588	0