version 3
run PureAlohaExperiment-5-20250302-16:21:59-14228
attr configname PureAlohaExperiment
attr datetime 20250302-16:21:59
attr datetimef 20250302-162159
attr experiment PureAlohaExperiment
attr inifile omnetpp.ini
attr iterationvars "$numHosts=10, $iaMean=7"
attr iterationvarsd numHosts=10/iaMean=7
attr iterationvarsf numHosts=10,iaMean=7-
attr measurement "$numHosts=10, $iaMean=7"
attr network Aloha
attr processid 14228
attr repetition 0
attr replication #0
attr resultdir results
attr runnumber 5
attr seedset 5
itervar iaMean 7
itervar numHosts 10
config description "Channel utilization in the function of packet generation frequency"
config repeat 1
config sim-time-limit 90min
config Aloha.numHosts 10
config Aloha.host[*].iaTime exponential(7s)
config network Aloha
config Aloha.numHosts 20
config Aloha.slotTime 0s
config Aloha.txRate 9.6kbps
config Aloha.host[*].pkLenBits 952b
config **.x "uniform(0m, 1000m)"
config **.y "uniform(0m, 1000m)"
config **.animationHoldTimeOnCollision 0s
config **.idleAnimationSpeed 1
config **.transmissionEdgeAnimationSpeed 1e-6
config **.midTransmissionAnimationSpeed 1e-1

vector 0 Aloha.server serverChannelState:vector ETV
attr enum IDLE=0,TRANSMISSION=1,COLLISION=2
attr recordingmode vector
attr source channelState
attr title "Channel state"
vector 1 Aloha.server channelUtilization:vector ETV
attr interpolationmode linear
attr recordingmode vector
attr source timeavg(receive)
attr title "channel utilization"
vector 2 Aloha.host[0] radioState:vector ETV
attr enum IDLE=0,TRANSMIT=1
attr recordingmode vector
attr source state
attr title "Radio state"
vector 3 Aloha.host[1] radioState:vector ETV
attr enum IDLE=0,TRANSMIT=1
attr recordingmode vector
attr source state
attr title "Radio state"
vector 4 Aloha.host[2] radioState:vector ETV
attr enum IDLE=0,TRANSMIT=1
attr recordingmode vector
attr source state
attr title "Radio state"
vector 5 Aloha.host[3] radioState:vector ETV
attr enum IDLE=0,TRANSMIT=1
attr recordingmode vector
attr source state
attr title "Radio state"
vector 6 Aloha.host[4] radioState:vector ETV
attr enum IDLE=0,TRANSMIT=1
attr recordingmode vector
attr source state
attr title "Radio state"
vector 7 Aloha.host[5] radioState:vector ETV
attr enum IDLE=0,TRANSMIT=1
attr recordingmode vector
attr source state
attr title "Radio state"
vector 8 Aloha.host[6] radioState:vector ETV
attr enum IDLE=0,TRANSMIT=1
attr recordingmode vector
attr source state
attr title "Radio state"
vector 9 Aloha.host[7] radioState:vector ETV
attr enum IDLE=0,TRANSMIT=1
attr recordingmode vector
attr source state
attr title "Radio state"
vector 10 Aloha.host[8] radioState:vector ETV
attr enum IDLE=0,TRANSMIT=1
attr recordingmode vector
attr source state
attr title "Radio state"
vector 11 Aloha.host[9] radioState:vector ETV
attr enum IDLE=0,TRANSMIT=1
attr recordingmode vector
attr source state
attr title "Radio state"
0	0	0	0
0	2	0.822828114095	1
0	4	0.921994780762	0
0	6	1.206405127267	1
0	8	1.305571793934	0
0	10	1.598455687451	1
0	12	1.697622354118	0
0	14	1.944496497427	1
0	16	2.043663164094	0
0	18	2.193213086449	1
0	20	2.242273099231	2
0	23	2.341439765898	0
0	25	4.075117786012	1
0	27	4.15525564913	2
0	30	4.254422315797	0
0	32	4.665851234962	1
0	34	4.765017901629	0
0	36	7.533028184919	1
0	38	7.632194851586	0
0	40	8.99721335033	1
0	42	9.096380016997	0
0	44	9.229251657828	1
0	46	9.328418324495	0
0	48	9.387652271576	1
0	50	9.431234985736	2
0	53	9.530401652403	0
0	55	10.118526885843	1
0	57	10.216493829054	2
0	60	10.244085758728	2
0	63	10.343252425395	0
0	65	11.177814102141	1
0	67	11.259378983884	2
0	70	11.358545650551	0
0	72	11.832053502821	1
0	74	11.931220169488	0
0	76	11.983117617655	1
0	78	12.082284284322	0
0	80	12.265038302316	1
0	82	12.364204968983	0
0	84	12.448283632738	1
0	86	12.547450299405	0
0	88	13.121190191441	1
0	90	13.220356858108	0
0	92	13.349688756138	1
0	94	13.448855422805	0
0	96	14.838174438433	1
0	98	14.9373411051	0
0	100	15.601737862066	1
0	102	15.700904528733	0
0	104	16.764243592024	1
0	106	16.846206920417	2
0	109	16.945373587084	0
0	111	17.117621470172	1
0	113	17.162264574728	2
0	116	17.261431241395	0
0	118	18.863411051126	1
0	120	18.962577717793	0
0	122	18.988525468939	1
0	124	19.087692135606	0
0	126	21.759383695926	1
0	128	21.858550362593	0
0	130	22.578893448798	1
0	132	22.678060115465	0
0	134	23.825995535347	1
0	136	23.925162202014	0
0	138	27.046981036696	1
0	140	27.146147703363	0
0	142	27.308548719672	1
0	144	27.407715386339	0
0	146	27.511853658697	1
0	148	27.537279486613	2
0	151	27.63644615328	0
0	153	30.627227241367	1
0	155	30.726393908034	0
0	157	30.737898547815	1
0	159	30.837065214482	0
0	161	30.850304089921	1
0	163	30.949470756588	0
0	165	33.205474136309	1
0	167	33.26152615896	2
0	170	33.360692825627	0
0	172	33.644679982338	1
0	174	33.743846649005	0
0	176	34.557054853605	1
0	178	34.656221520272	0
0	180	34.835868178815	1
0	182	34.935034845482	0
0	184	34.975295832046	1
0	186	35.074462498713	0
0	188	35.803609510169	1
0	190	35.902776176836	0
0	192	36.020775387226	1
0	194	36.021539923545	2
0	197	36.120706590212	0
0	199	37.173667078709	1
0	201	37.272833745376	0
0	203	39.056404737989	1
0	205	39.155571404656	0
0	207	40.508269875063	1
0	209	40.60743654173	0
0	211	40.715523849664	1
0	213	40.814690516331	0
0	215	43.819239221785	1
0	217	43.918405888452	0
0	219	43.933922580057	1
0	221	44.033089246724	0
0	223	44.827539242348	1
0	225	44.926705909015	0
0	227	45.160759547733	1
0	229	45.2599262144	0
0	231	47.473948584666	1
0	233	47.573115251333	0
0	235	49.165111288388	1
0	237	49.264277955055	0
0	239	49.364099744268	1
0	241	49.463266410935	0
0	243	49.731048497592	1
0	245	49.830215164259	0
0	247	50.029569336334	1
0	249	50.128736003001	0
0	251	51.195902453123	1
0	253	51.29506911979	0
0	255	51.327788368022	1
0	257	51.426955034689	0
0	259	51.580440607985	1
0	261	51.679607274652	0
0	263	51.936034692908	1
0	265	52.035201359575	0
0	267	53.026745993882	1
0	269	53.125912660549	0
0	271	54.219892323152	1
0	273	54.319058989819	0
0	275	54.648434938057	1
0	277	54.747601604724	0
0	279	55.494263502516	1
0	281	55.593430169183	0
0	283	55.654763421601	1
0	285	55.753930088268	0
0	287	55.800236122971	1
0	289	55.899402789638	0
0	291	56.532902942793	1
0	293	56.63206960946	0
0	295	56.961603633983	1
0	297	57.06077030065	0
0	299	57.887950837267	1
0	301	57.987117503934	0
0	303	58.24761874744	1
0	305	58.346785414107	0
0	307	58.532359779323	1
0	309	58.63152644599	0
0	311	58.963240913223	1
0	313	59.06240757989	0
0	315	59.081142697052	1
0	317	59.180309363719	0
0	319	59.239463666871	1
0	321	59.338630333538	0
0	323	60.372190646875	1
0	325	60.471357313542	0
0	327	61.434717797188	1
0	329	61.533884463855	0
0	331	61.892735373667	1
0	333	61.991902040334	0
0	335	62.264536081903	1
0	337	62.348975615725	2
0	340	62.448142282392	0
0	342	62.488510122641	1
0	344	62.587676789308	0
0	346	64.351783883323	1
0	348	64.45095054999	0
0	350	65.763690083875	1
0	352	65.862856750542	0
0	354	66.331888017348	1
0	356	66.431054684015	0
0	358	67.84140215482	1
0	360	67.940568821487	0
0	362	68.208000661383	1
0	364	68.30716732805	0
0	366	68.947827607534	1
0	368	69.046994274201	0
0	370	69.649516887666	1
0	372	69.748683554333	0
0	374	69.826697411399	1
0	376	69.925864078066	0
0	378	73.4087824789	1
0	380	73.507949145567	0
0	382	74.853077235484	1
0	384	74.952243902151	0
0	386	75.491188659112	1
0	388	75.590355325779	0
0	390	75.64482225159	1
0	392	75.743988918257	0
0	394	77.55841667736	1
0	396	77.657583344027	0
0	398	78.87947509442	1
0	400	78.978641761087	0
0	402	79.079674541283	1
0	404	79.17884120795	0
0	406	79.231725453862	1
0	408	79.330892120529	0
0	410	81.521617062992	1
0	412	81.620783729659	0
0	414	82.051407532506	1
0	416	82.11908189301	2
0	419	82.218248559677	0
0	421	82.512338059919	1
0	423	82.611504726586	0
0	425	82.978983512765	1
0	427	83.078150179432	0
0	429	83.315099379376	1
0	431	83.414025152426	2
0	434	83.513191819093	0
0	436	83.659604619739	1
0	438	83.758771286406	0
0	440	84.86402614606	1
0	442	84.87780928668	2
0	445	84.976975953347	0
0	447	85.027486061266	1
0	449	85.126652727933	0
0	451	86.109958242871	1
0	453	86.135691577389	2
0	456	86.231272028408	2
0	459	86.330438695075	0
0	461	86.93766703117	1
0	463	86.942951947858	2
0	466	87.042118614525	0
0	468	87.59609145161	1
0	470	87.695258118277	0
0	472	89.368516408913	1
0	474	89.46768307558	0
0	476	89.724827038698	1
0	478	89.823993705365	0
0	480	91.62257190434	1
0	482	91.721738571007	0
0	484	91.858044485044	1
0	486	91.957211151711	0
0	488	92.186715953464	1
0	490	92.285882620131	0
0	492	93.282920345015	1
0	494	93.382087011682	0
0	496	94.171888433092	1
0	498	94.228125874706	2
0	501	94.327292541373	0
0	503	94.949914583485	1
0	505	95.049081250152	0
0	507	95.725444713878	1
0	509	95.824611380545	0
0	511	95.878141833932	1
0	513	95.977308500599	0
0	515	96.565997685917	1
0	517	96.665164352584	0
0	519	97.305329544753	1
0	521	97.40449621142	0
0	523	97.85281595214	1
0	525	97.951982618807	0
0	527	100.377333010908	1
0	529	100.476499677575	0
0	531	100.996850764701	1
0	533	101.096017431368	0
0	535	101.220460597042	1
0	537	101.319627263709	0
0	539	104.704473493433	1
0	541	104.8036401601	0
0	543	105.728375040725	1
0	545	105.827541707392	0
0	547	107.452071463884	1
0	549	107.500920810446	2
0	552	107.600087477113	0
0	554	108.962662229947	1
0	556	109.061828896614	0
0	558	109.312361758061	1
0	560	109.411528424728	0
0	562	109.567954786174	1
0	564	109.667121452841	0
0	566	110.816380034704	1
0	568	110.826061252135	2
0	570	110.826719938083	2
0	574	110.92588660475	0
0	576	111.002672541013	1
0	578	111.10183920768	0
0	580	111.898488744136	1
0	582	111.976876804312	2
0	585	112.076043470979	0
0	587	112.261311536663	1
0	589	112.36047820333	0
0	591	112.66260374759	1
0	593	112.761770414257	0
0	595	112.822133817594	1
0	597	112.921300484261	0
0	599	113.642354686003	1
0	601	113.74152135267	0
0	603	114.290740899913	1
0	605	114.38990756658	0
0	607	114.390625731176	1
0	609	114.489792397843	0
0	611	115.196607304526	1
0	613	115.295773971193	0
0	615	116.915640096546	1
0	617	117.014806763213	0
0	619	118.626076445909	1
0	621	118.725243112576	0
0	623	119.437592457333	1
0	625	119.4513713635	2
0	628	119.550538030167	0
0	630	119.694753107503	1
0	632	119.79391977417	0
0	634	121.133764695026	1
0	636	121.232931361693	0
0	638	124.453991687607	1
0	640	124.540408917231	2
0	643	124.639575583898	0
0	645	124.674036585846	1
0	647	124.74116780907	2
0	650	124.840334475737	0
0	652	124.937403069805	1
0	654	125.036569736472	0
0	656	126.200208549495	1
0	658	126.299375216162	0
0	660	126.752834736562	1
0	662	126.852001403229	0
0	664	127.183481377068	1
0	666	127.282648043735	0
0	668	127.670956558138	1
0	670	127.770123224805	0
0	672	128.349439876561	1
0	674	128.448606543228	0
0	676	129.927783883793	1
0	678	130.008003041628	2
0	681	130.107169708295	0
0	683	130.327970544642	1
0	685	130.427137211309	0
0	687	132.999243009512	1
0	689	133.098409676179	0
0	691	133.764567923317	1
0	693	133.863734589984	0
0	695	134.322881895051	1
0	697	134.422048561718	0
0	699	134.908571599996	1
0	701	135.007738266663	0
0	703	136.667244362986	1
0	705	136.722625814098	2
0	708	136.821792480765	0
0	710	137.246822866939	1
0	712	137.345989533606	0
0	714	137.419116175684	1
0	716	137.518282842351	0
0	718	137.61466680826	1
0	720	137.713833474927	0
0	722	138.805600332609	1
0	724	138.904766999276	0
0	726	139.890236969627	1
0	728	139.989403636294	0
0	730	141.595206515866	1
0	732	141.694373182533	0
0	734	141.737423782131	1
0	736	141.836590448798	0
0	738	142.796211512221	1
0	740	142.895378178888	0
0	742	143.625299485867	1
0	744	143.655429127002	2
0	747	143.754595793669	0
0	749	144.831685465423	1
0	751	144.93085213209	0
0	753	145.535391364506	1
0	755	145.634558031173	0
0	757	146.530455577328	1
0	759	146.629622243995	0
0	761	148.178371686709	1
0	763	148.277538353376	0
0	765	151.317344625909	1
0	767	151.416511292576	0
0	769	151.866062860586	1
0	771	151.965229527253	0
0	773	154.30240005299	1
0	775	154.401566719657	0
0	777	155.155961663881	1
0	779	155.255128330548	0
0	781	155.62107740422	1
0	783	155.720244070887	0
0	785	156.21430174812	1
0	787	156.313468414787	0
0	789	156.410775034892	1
0	791	156.509941701559	0
0	793	157.226764962794	1
0	795	157.325931629461	0
0	797	157.855374680492	1
0	799	157.954541347159	0
0	801	158.98558499812	1
0	803	159.084751664787	0
0	805	159.211628039646	1
0	807	159.310794706313	0
0	809	160.776160005189	1
0	811	160.811928830364	2
0	814	160.911095497031	0
0	816	163.833520733195	1
0	818	163.932687399862	0
0	820	166.050231600618	1
0	822	166.149398267285	0
0	824	166.795624718729	1
0	826	166.894791385396	0
0	828	167.255983071335	1
0	830	167.355149738002	0
0	832	167.918129214319	1
0	834	167.977099059904	2
0	837	168.076265726571	0
0	839	169.375231944585	1
0	841	169.474398611252	0
0	843	170.045024494047	1
0	845	170.144191160714	0
0	847	170.751141402269	1
0	849	170.850308068936	0
0	851	170.86271390719	1
0	853	170.961880573857	0
0	855	171.351908480052	1
0	857	171.451075146719	0
0	859	172.879627551657	1
0	861	172.978794218324	0
0	863	173.251851613855	1
0	865	173.351018280522	0
0	867	173.602261851569	1
0	869	173.701428518236	0
0	871	174.377460757844	1
0	873	174.476627424511	0
0	875	174.731343222488	1
0	877	174.830509889155	0
0	879	176.356378688731	1
0	881	176.455545355398	0
0	883	176.864922155446	1
0	885	176.964088822113	0
0	887	177.314054929586	1
0	889	177.397932851695	2
0	892	177.497099518362	0
0	894	178.019164725521	1
0	896	178.098301590278	2
0	899	178.197468256945	0
0	901	179.218675271405	1
0	903	179.317841938072	0
0	905	180.770359365289	1
0	907	180.869526031956	0
0	909	181.404470143251	1
0	911	181.503636809918	0
0	913	181.678695467562	1
0	915	181.777862134229	0
0	917	182.236362352264	1
0	919	182.335529018931	0
0	921	183.017469672327	1
0	923	183.116636338994	0
0	925	183.307523895521	1
0	927	183.406690562188	0
0	929	183.815415559377	1
0	931	183.914582226044	0
0	933	184.53693982276	1
0	935	184.636106489427	0
0	937	185.0571339947	1
0	939	185.156300661367	0
0	941	185.342780358554	1
0	943	185.441947025221	0
0	945	186.194953800516	1
0	947	186.294120467183	0
0	949	186.362597759129	1
0	951	186.461764425796	0
0	953	186.467214915631	1
0	955	186.566381582298	0
0	957	187.193458493134	1
0	959	187.292625159801	0
0	961	187.600536923589	1
0	963	187.699703590256	0
0	965	187.856611601716	1
0	967	187.955778268383	0
0	969	188.087769970322	1
0	971	188.186936636989	0
0	973	189.412622188396	1
0	975	189.511788855063	0
0	977	189.940381259051	1
0	979	190.039547925718	0
0	981	191.871000469051	1
0	983	191.970167135718	0
0	985	192.136422156662	1
0	987	192.235588823329	0
0	989	192.997489051579	1
0	991	193.096655718246	0
0	993	196.270052919338	1
0	995	196.369219586005	0
0	997	196.700010565931	1
0	999	196.799177232598	0
0	1001	196.801019315911	1
0	1003	196.900185982578	0
0	1005	198.10726654915	1
0	1007	198.206433215817	0
0	1009	199.296263071695	1
0	1011	199.395429738362	0
0	1013	199.447917695856	1
0	1015	199.497967131647	2
0	1018	199.597133798314	0
0	1020	199.822582542441	1
0	1022	199.921749209108	0
0	1024	202.119084897676	1
0	1026	202.218251564343	0
0	1028	202.57003786772	1
0	1030	202.669204534387	0
0	1032	202.874995889799	1
0	1034	202.974162556466	0
0	1036	204.358003952592	1
0	1038	204.457170619259	0
0	1040	205.319113859815	1
0	1042	205.418280526482	0
0	1044	205.786501608709	1
0	1046	205.885668275376	0
0	1048	206.054663459706	1
0	1050	206.153830126373	0
0	1052	206.572652766629	1
0	1054	206.671819433296	0
0	1056	206.758641572599	1
0	1058	206.857808239266	0
0	1060	206.891863235588	1
0	1062	206.949849342744	2
0	1065	207.049016009411	0
0	1067	209.315048108395	1
0	1069	209.414214775062	0
0	1071	209.469472856154	1
0	1073	209.568639522821	0
0	1075	210.513843273874	1
0	1077	210.613009940541	0
0	1079	211.530616860486	1
0	1081	211.629783527153	0
0	1083	212.94563766715	1
0	1085	213.044804333817	0
0	1087	213.567985278276	1
0	1089	213.667151944943	0
0	1091	213.88852623934	1
0	1093	213.987692906007	0
0	1095	214.447327102522	1
0	1097	214.546493769189	0
0	1099	216.962958077637	1
0	1101	217.062124744304	0
0	1103	217.385098743691	1
0	1105	217.484265410358	0
0	1107	217.988701488383	1
0	1109	218.08786815505	0
0	1111	220.046898691892	1
0	1113	220.146065358559	0
0	1115	220.366365163541	1
0	1117	220.465531830208	0
0	1119	220.659983232118	1
0	1121	220.759149898785	0
0	1123	222.398966461813	1
0	1125	222.49813312848	0
0	1127	223.199304190472	1
0	1129	223.298470857139	0
0	1131	224.093817945085	1
0	1133	224.192984611752	0
0	1135	225.063975052023	1
0	1137	225.126403442006	2
0	1140	225.225570108673	0
0	1142	225.814895603599	1
0	1144	225.914062270266	0
0	1146	227.095336352783	1
0	1148	227.19450301945	0
0	1150	228.824908347073	1
0	1152	228.92407501374	0
0	1154	229.859866021406	1
0	1156	229.959032688073	0
0	1158	231.157328567934	1
0	1160	231.256495234601	0
0	1162	232.178094309789	1
0	1164	232.277260976456	0
0	1166	232.493199002267	1
0	1168	232.592365668934	0
0	1170	232.843116386615	1
0	1172	232.942283053282	0
0	1174	233.109992531206	1
0	1176	233.209159197873	0
0	1178	234.13677071045	1
0	1180	234.226278737003	2
0	1183	234.32544540367	0
0	1185	234.869332992301	1
0	1187	234.968499658968	0
0	1189	235.554488892257	1
0	1191	235.653655558924	0
0	1193	235.747067909782	1
0	1195	235.846234576449	0
0	1197	236.238939779206	1
0	1199	236.338106445873	0
0	1201	237.398285272845	1
0	1203	237.497451939512	0
0	1205	238.142221131396	1
0	1207	238.241387798063	0
0	1209	238.306703003618	1
0	1211	238.405869670285	0
0	1213	240.809552552055	1
0	1215	240.908719218722	0
0	1217	241.107990405055	1
0	1219	241.207157071722	0
0	1221	242.148110635725	1
0	1223	242.247277302392	0
0	1225	242.43231107582	1
0	1227	242.531477742487	0
0	1229	242.634480230774	1
0	1231	242.733646897441	0
0	1233	245.317951854741	1
0	1235	245.417118521408	0
0	1237	246.128737117324	1
0	1239	246.208310547974	2
0	1242	246.307477214641	0
0	1244	246.593352665255	1
0	1246	246.692519331922	0
0	1248	246.918578989474	1
0	1250	247.017745656141	0
0	1252	248.913621241028	1
0	1254	249.012787907695	0
0	1256	249.875103308624	1
0	1258	249.974269975291	0
0	1260	251.671431085182	1
0	1262	251.770597751849	0
0	1264	251.951005882148	1
0	1266	252.050172548815	0
0	1268	252.549579976472	1
0	1270	252.610346956473	2
0	1273	252.70951362314	0
0	1275	253.440262170813	1
0	1277	253.53942883748	0
0	1279	253.562614778158	1
0	1281	253.661781444825	0
0	1283	253.896907015989	1
0	1285	253.996073682656	0
0	1287	254.549462132399	1
0	1289	254.648628799066	0
0	1291	254.806133305184	1
0	1293	254.905299971851	0
0	1295	255.806656643939	1
0	1297	255.905823310606	0
0	1299	255.932468313729	1
0	1301	255.941445535801	2
0	1304	256.040612202468	0
0	1306	256.246636573782	1
0	1308	256.345803240449	0
0	1310	256.511684734993	1
0	1312	256.61085140166	0
0	1314	256.72091816043	1
0	1316	256.820084827097	0
0	1318	257.147686444978	1
0	1320	257.238182430668	2
0	1323	257.337349097335	0
0	1325	258.707637909619	1
0	1327	258.806804576286	0
0	1329	259.34626879451	1
0	1331	259.445435461177	0
0	1333	259.951758178339	1
0	1335	260.050924845006	0
0	1337	260.606295961607	1
0	1339	260.705462628274	0
0	1341	262.497064159463	1
0	1343	262.59623082613	0
0	1345	262.690434439959	1
0	1347	262.789601106626	0
0	1349	263.257629558688	1
0	1351	263.356796225355	0
0	1353	264.303987265313	1
0	1355	264.40315393198	0
0	1357	265.20686475728	1
0	1359	265.306031423947	0
0	1361	265.60900443691	1
0	1363	265.708171103577	0
0	1365	265.746524321278	1
0	1367	265.845690987945	0
0	1369	266.275229828635	1
0	1371	266.374396495302	0
0	1373	266.948907764094	1
0	1375	267.013052271634	2
0	1378	267.112218938301	0
0	1380	269.986994983723	1
0	1382	270.08616165039	0
0	1384	272.404562046439	1
0	1386	272.503728713106	0
0	1388	272.59002142943	1
0	1390	272.689188096097	0
0	1392	273.163407435243	1
0	1394	273.26257410191	0
0	1396	273.485739821228	1
0	1398	273.49737243355	2
0	1400	273.510235244529	2
0	1404	273.609401911196	0
0	1406	273.614382006202	1
0	1408	273.713548672869	0
0	1410	274.367650285028	1
0	1412	274.378242788231	2
0	1415	274.477409454898	0
0	1417	274.978622922753	1
0	1419	275.07778958942	0
0	1421	275.570935535397	1
0	1423	275.670102202064	0
0	1425	276.187632480629	1
0	1427	276.286799147296	0
0	1429	276.303194978225	1
0	1431	276.402361644892	0
0	1433	276.450524953474	1
0	1435	276.549691620141	0
0	1437	277.032547543965	1
0	1439	277.131714210632	0
0	1441	277.193913933141	1
0	1443	277.222233468405	2
0	1446	277.321400135072	0
0	1448	278.589047674809	1
0	1450	278.688214341476	0
0	1452	279.393429526458	1
0	1454	279.492596193125	0
0	1456	279.778071877243	1
0	1458	279.87723854391	0
0	1460	279.92845329451	1
0	1462	280.027619961177	0
0	1464	280.091599398653	1
0	1466	280.19076606532	0
0	1468	280.454130264444	1
0	1470	280.553296931111	0
0	1472	280.682426260773	1
0	1474	280.716575110022	2
0	1477	280.815741776689	0
0	1479	282.309242953783	1
0	1481	282.40840962045	0
0	1483	283.530204925382	1
0	1485	283.550837160069	2
0	1488	283.650003826736	0
0	1490	283.778659913142	1
0	1492	283.877826579809	0
0	1494	284.715238874959	1
0	1496	284.814405541626	0
0	1498	285.708059731146	1
0	1500	285.727933202066	2
0	1503	285.827099868733	0
0	1505	285.873309232685	1
0	1507	285.972475899352	0
0	1509	286.376185009082	1
0	1511	286.475351675749	0
0	1513	287.025041753925	1
0	1515	287.077828555629	2
0	1518	287.176995222296	0
0	1520	288.276323346827	1
0	1522	288.375490013494	0
0	1524	289.53766941018	1
0	1526	289.636836076847	0
0	1528	290.739049555893	1
0	1530	290.83821622256	0
0	1532	293.196342036764	1
0	1534	293.295508703431	0
0	1536	294.071364278687	1
0	1538	294.170530945354	0
0	1540	294.630622622862	1
0	1542	294.729789289529	0
0	1544	295.057268822851	1
0	1546	295.156435489518	0
0	1548	296.30488759877	1
0	1550	296.349421377125	2
0	1553	296.445646902092	2
0	1556	296.544813568759	0
0	1558	298.060917277173	1
0	1560	298.16008394384	0
0	1562	298.548262753246	1
0	1564	298.647429419913	0
0	1566	298.844160495663	1
0	1568	298.94332716233	0
0	1570	299.156485497447	1
0	1572	299.183042214052	2
0	1575	299.282208880719	0
0	1577	299.691441026972	1
0	1579	299.790607693639	0
0	1581	300.684021365768	1
0	1583	300.783188032435	0
0	1585	301.667032840981	1
0	1587	301.676184533231	2
0	1589	301.699551366595	2
0	1593	301.798718033262	0
0	1595	303.628686567614	1
0	1597	303.727853234281	0
0	1599	305.580659080342	1
0	1601	305.679825747009	0
0	1603	305.72308982081	1
0	1605	305.822256487477	0
0	1607	307.681442792145	1
0	1609	307.780609458812	0
0	1611	309.144499160098	1
0	1613	309.24109009883	2
0	1616	309.340256765497	0
0	1618	313.23926254644	1
0	1620	313.338429213107	0
0	1622	314.365036534087	1
0	1624	314.417636282437	2
0	1627	314.516802949104	0
0	1629	315.092319120663	1
0	1631	315.19148578733	0
0	1633	315.503524600854	1
0	1635	315.602691267521	0
0	1637	317.097463864493	1
0	1639	317.19663053116	0
0	1641	317.80380401375	1
0	1643	317.902970680417	0
0	1645	318.939668514493	1
0	1647	319.03883518116	0
0	1649	319.079790084607	1
0	1651	319.178956751274	0
0	1653	319.192761646608	1
0	1655	319.249000753583	2
0	1658	319.34816742025	0
0	1660	319.3508482303	1
0	1662	319.450014896967	0
0	1664	320.424439785988	1
0	1666	320.523606452655	0
0	1668	320.59105448801	1
0	1670	320.690221154677	0
0	1672	321.118401162119	1
0	1674	321.217567828786	0
0	1676	321.816954467451	1
0	1678	321.916121134118	0
0	1680	322.447484992922	1
0	1682	322.546651659589	0
0	1684	322.6133064692	1
0	1686	322.712473135867	0
0	1688	322.837815033433	1
0	1690	322.883884263976	2
0	1693	322.983050930643	0
0	1695	323.142795670527	1
0	1697	323.241962337194	0
0	1699	325.890246567219	1
0	1701	325.989413233886	0
0	1703	326.213918341335	1
0	1705	326.313085008002	0
0	1707	326.862613245492	1
0	1709	326.961779912159	0
0	1711	329.058168127052	1
0	1713	329.157334793719	0
0	1715	329.21857715185	1
0	1717	329.317743818517	0
0	1719	331.8663863938	1
0	1721	331.956023790822	2
0	1724	332.055190457489	0
0	1726	332.727000542059	1
0	1728	332.826167208726	0
0	1730	333.005573957863	1
0	1732	333.10474062453	0
0	1734	333.537611615713	1
0	1736	333.59734202887	2
0	1739	333.696508695537	0
0	1741	334.116016374952	1
0	1743	334.215183041619	0
0	1745	334.41242059533	1
0	1747	334.511587261997	0
0	1749	335.309302011136	1
0	1751	335.408468677803	0
0	1753	336.527788144453	1
0	1755	336.62695481112	0
0	1757	337.636466969211	1
0	1759	337.735633635878	0
0	1761	337.910153714038	1
0	1763	337.982745049368	2
0	1766	338.081911716035	0
0	1768	338.711000061875	1
0	1770	338.810166728542	0
0	1772	339.576904212204	1
0	1774	339.676070878871	0
0	1776	341.039765329546	1
0	1778	341.138931996213	0
0	1780	341.277742180552	1
0	1782	341.376908847219	0
0	1784	341.557302175383	1
0	1786	341.65646884205	0
0	1788	343.631847320644	1
0	1790	343.678372224826	2
0	1792	343.719151530514	2
0	1796	343.818318197181	0
0	1798	343.996243224555	1
0	1800	344.095409891222	0
0	1802	344.674105566863	1
0	1804	344.77327223353	0
0	1806	345.406903337378	1
0	1808	345.412786864156	2
0	1810	345.422359554831	2
0	1814	345.521526221498	0
0	1816	348.773281274334	1
0	1818	348.872447941001	0
0	1820	348.95934686861	1
0	1822	349.058513535277	0
0	1824	350.599856760682	1
0	1826	350.699023427349	0
0	1828	351.951104385722	1
0	1830	352.050271052389	0
0	1832	352.160112166689	1
0	1834	352.259278833356	0
0	1836	353.831392573969	1
0	1838	353.930559240636	0
0	1840	356.357635396469	1
0	1842	356.456802063136	0
0	1844	356.616384685722	1
0	1846	356.715551352389	0
0	1848	357.669164791988	1
0	1850	357.768331458655	0
0	1852	357.818155330447	1
0	1854	357.917321997114	0
0	1856	358.255115300909	1
0	1858	358.354281967576	0
0	1860	360.336068860539	1
0	1862	360.435235527206	0
0	1864	362.583637085191	1
0	1866	362.682803751858	0
0	1868	363.487235176339	1
0	1870	363.586401843006	0
0	1872	363.800682422648	1
0	1874	363.899849089315	0
0	1876	363.968139296188	1
0	1878	364.067305962855	0
0	1880	364.072638394176	1
0	1882	364.171805060843	0
0	1884	364.375699918448	1
0	1886	364.474866585115	0
0	1888	364.705965194535	1
0	1890	364.805131861202	0
0	1892	364.839070263813	1
0	1894	364.93823693048	0
0	1896	365.670393606548	1
0	1898	365.769560273215	0
0	1900	367.115624297666	1
0	1902	367.214790964333	0
0	1904	367.254799182113	1
0	1906	367.35396584878	0
0	1908	368.834687390841	1
0	1910	368.933854057508	0
0	1912	368.968262864021	1
0	1914	369.067429530688	0
0	1916	369.239984903215	1
0	1918	369.339151569882	0
0	1920	369.753017717236	1
0	1922	369.852184383903	0
0	1924	370.841834024643	1
0	1926	370.94100069131	0
0	1928	371.025616506068	1
0	1930	371.124783172735	0
0	1932	373.151402365236	1
0	1934	373.215383984921	2
0	1937	373.314550651588	0
0	1939	373.410793724186	1
0	1941	373.509960390853	0
0	1943	374.720147510035	1
0	1945	374.80127085585	2
0	1948	374.900437522517	0
0	1950	375.736480843281	1
0	1952	375.835647509948	0
0	1954	376.107382542213	1
0	1956	376.20654920888	0
0	1958	376.754666076143	1
0	1960	376.85383274281	0
0	1962	377.237829495214	1
0	1964	377.336996161881	0
0	1966	377.667749961333	1
0	1968	377.766916628	0
0	1970	378.700855400163	1
0	1972	378.80002206683	0
0	1974	381.76265089357	1
0	1976	381.861817560237	0
0	1978	383.977432434924	1
0	1980	383.983890914014	2
0	1983	384.083057580681	0
0	1985	385.716306214215	1
0	1987	385.815472880882	0
0	1989	388.956869057263	1
0	1991	389.05603572393	0
0	1993	389.379238368292	1
0	1995	389.478405034959	0
0	1997	391.250285698981	1
0	1999	391.349452365648	0
0	2001	391.557153389802	1
0	2003	391.656320056469	0
0	2005	392.27593260803	1
0	2007	392.375099274697	0
0	2009	393.536982357166	1
0	2011	393.636149023833	0
0	2013	393.863479203492	1
0	2015	393.901883337206	2
0	2018	394.001050003873	0
0	2020	394.406762049309	1
0	2022	394.505928715976	0
0	2024	395.392513921029	1
0	2026	395.491680587696	0
0	2028	395.710310578614	1
0	2030	395.809477245281	0
0	2032	395.873853326948	1
0	2034	395.887557991393	2
0	2037	395.98672465806	0
0	2039	396.805555909874	1
0	2041	396.848452371951	2
0	2044	396.947619038618	0
0	2046	397.180327559645	1
0	2048	397.279494226312	0
0	2050	397.408521873553	1
0	2052	397.50768854022	0
0	2054	397.663813854731	1
0	2056	397.762980521398	0
0	2058	398.537933770059	1
0	2060	398.637100436726	0
0	2062	398.953299705269	1
0	2064	399.052466371936	0
0	2066	399.723534801673	1
0	2068	399.82270146834	0
0	2070	400.011505672708	1
0	2072	400.110672339375	0
0	2074	400.256236280443	1
0	2076	400.35540294711	0
0	2078	400.757564753501	1
0	2080	400.856731420168	0
0	2082	400.951484049787	1
0	2084	401.050650716454	0
0	2086	402.017532818798	1
0	2088	402.116699485465	0
0	2090	402.633407729198	1
0	2092	402.732574395865	0
0	2094	403.488252954736	1
0	2096	403.554529192352	2
0	2099	403.653695859019	0
0	2101	404.269885032906	1
0	2103	404.369051699573	0
0	2105	404.470947299339	1
0	2107	404.491019118494	2
0	2110	404.590185785161	0
0	2112	404.685247011159	1
0	2114	404.784413677826	0
0	2116	404.979814961387	1
0	2118	405.066208042508	2
0	2121	405.165374709175	0
0	2123	406.871205431656	1
0	2125	406.970372098323	0
0	2127	407.226813826129	1
0	2129	407.325980492796	0
0	2131	407.454970962627	1
0	2133	407.554137629294	0
0	2135	407.785208141801	1
0	2137	407.87300166854	2
0	2140	407.972168335207	0
0	2142	408.226783057918	1
0	2144	408.325949724585	0
0	2146	408.573168459635	1
0	2148	408.672335126302	0
0	2150	408.720822013731	1
0	2152	408.819988680398	0
0	2154	409.12901556908	1
0	2156	409.228182235747	0
0	2158	409.529507131782	1
0	2160	409.553100911154	2
0	2163	409.652267577821	0
0	2165	410.667782528233	1
0	2167	410.7669491949	0
0	2169	411.765202814065	1
0	2171	411.864369480732	0
0	2173	412.078013528647	1
0	2175	412.177180195314	0
0	2177	413.000932419532	1
0	2179	413.031562656884	2
0	2182	413.11284484024	2
0	2185	413.212011506907	0
0	2187	414.402636162182	1
0	2189	414.501802828849	0
0	2191	415.359250648028	1
0	2193	415.458417314695	0
0	2195	415.974457569471	1
0	2197	416.073624236138	0
0	2199	416.157004146979	1
0	2201	416.256170813646	0
0	2203	417.212386068072	1
0	2205	417.311552734739	0
0	2207	417.590110555374	1
0	2209	417.689277222041	0
0	2211	418.470393947964	1
0	2213	418.478365100005	2
0	2216	418.577531766672	0
0	2218	418.615970879236	1
0	2220	418.715137545903	0
0	2222	420.505402855033	1
0	2224	420.6045695217	0
0	2226	420.845850737512	1
0	2228	420.945017404179	0
0	2230	421.62520539749	1
0	2232	421.724372064157	0
0	2234	422.0504177705	1
0	2236	422.149584437167	0