version 3
run PureAlohaExperiment-2-20250302-16:21:59-14228
attr configname PureAlohaExperiment
attr datetime 20250302-16:21:59
attr datetimef 20250302-162159
attr experiment PureAlohaExperiment
attr inifile omnetpp.ini
attr iterationvars "$numHosts=10, $iaMean=3"
attr iterationvarsd numHosts=10/iaMean=3
attr iterationvarsf numHosts=10,iaMean=3-
attr measurement "$numHosts=10, $iaMean=3"
attr network Aloha
attr processid 14228
attr repetition 0
attr replication #0
attr resultdir results
attr runnumber 2
attr seedset 2
itervar iaMean 3
itervar numHosts 10
config description "Channel utilization in the function of packet generation frequency"
config repeat 1
config sim-time-limit 90min
config Aloha.numHosts 10
config Aloha.host[*].iaTime exponential(3s)
config network Aloha
config Aloha.numHosts 20
config Aloha.slotTime 0s
config Aloha.txRate 9.6kbps
config Aloha.host[*].pkLenBits 952b
config **.x "uniform(0m, 1000m)"
config **.y "uniform(0m, 1000m)"
config **.animationHoldTimeOnCollision 0s
config **.idleAnimationSpeed 1
config **.transmissionEdgeAnimationSpeed 1e-6
config **.midTransmissionAnimationSpeed 1e-1

vector 0 Aloha.server serverChannelState:vector ETV
attr enum IDLE=0,TRANSMISSION=1,COLLISION=2
attr recordingmode vector
attr source channelState
attr title "Channel state"
vector 1 Aloha.server channelUtilization:vector ETV
attr interpolationmode linear
attr recordingmode vector
attr source timeavg(receive)
attr title "channel utilization"
vector 2 Aloha.host[0] radioState:vector ETV
attr enum IDLE=0,TRANSMIT=1
attr recordingmode vector
attr source state
attr title "Radio state"
vector 3 Aloha.host[1] radioState:vector ETV
attr enum IDLE=0,TRANSMIT=1
attr recordingmode vector
attr source state
attr title "Radio state"
vector 4 Aloha.host[2] radioState:vector ETV
attr enum IDLE=0,TRANSMIT=1
attr recordingmode vector
attr source state
attr title "Radio state"
vector 5 Aloha.host[3] radioState:vector ETV
attr enum IDLE=0,TRANSMIT=1
attr recordingmode vector
attr source state
attr title "Radio state"
vector 6 Aloha.host[4] radioState:vector ETV
attr enum IDLE=0,TRANSMIT=1
attr recordingmode vector
attr source state
attr title "Radio state"
vector 7 Aloha.host[5] radioState:vector ETV
attr enum IDLE=0,TRANSMIT=1
attr recordingmode vector
attr source state
attr title "Radio state"
vector 8 Aloha.host[6] radioState:vector ETV
attr enum IDLE=0,TRANSMIT=1
attr recordingmode vector
attr source state
attr title "Radio state"
vector 9 Aloha.host[7] radioState:vector ETV
attr enum IDLE=0,TRANSMIT=1
attr recordingmode vector
attr source state
attr title "Radio state"
vector 10 Aloha.host[8] radioState:vector ETV
attr enum IDLE=0,TRANSMIT=1
attr recordingmode vector
attr source state
attr title "Radio state"
vector 11 Aloha.host[9] radioState:vector ETV
attr enum IDLE=0,TRANSMIT=1
attr recordingmode vector
attr source state
attr title "Radio state"
0	0	0	0
0	2	0.43362182194	1
0	4	0.532788488607	0
0	6	0.611640999682	1
0	8	0.710807666349	0
0	10	0.897234790521	1
0	12	0.996401457188	0
0	14	2.0708213999	1
0	16	2.162037250932	2
0	19	2.259599566425	2
0	22	2.358766233092	0
0	24	2.651450570783	1
0	26	2.75061723745	0
0	28	2.943107419101	1
0	30	2.999606213968	2
0	32	3.0414618071	2
0	35	3.081152154559	2
0	39	3.180318821226	0
0	41	3.382864474189	1
0	43	3.446809107234	2
0	46	3.545975773901	0
0	48	3.739228442249	1
0	50	3.816266041853	2
0	53	3.91543270852	0
0	55	4.197901985725	1
0	57	4.208945902202	2
0	59	4.219972889593	2
0	63	4.31913955626	0
0	65	4.500510569329	1
0	67	4.599677235996	0
0	69	4.616033474575	1
0	71	4.715200141242	0
0	73	4.716121519749	1
0	75	4.815288186416	0
0	77	4.898746560823	1
0	79	4.99791322749	0
0	81	5.20985724825	1
0	83	5.222466302295	2
0	86	5.321632968962	0
0	88	5.583884926762	1
0	90	5.648347544386	2
0	93	5.747514211053	0
0	95	5.750363956963	1
0	97	5.84953062363	0
0	99	6.304726782118	1
0	101	6.364513869118	2
0	104	6.429613618946	2
0	107	6.528780285613	0
0	109	6.955024943527	1
0	111	7.054191610194	0
0	113	7.141077719253	1
0	115	7.217709291994	2
0	118	7.316875958661	0
0	120	7.324238015915	1
0	122	7.423404682582	0
0	124	7.730166497897	1
0	126	7.829333164564	0
0	128	7.884570077758	1
0	130	7.90286966454	2
0	133	8.002036331207	0
0	135	8.330849201537	1
0	137	8.35581775173	2
0	140	8.454984418397	0
0	142	9.137380558624	1
0	144	9.236547225291	0
0	146	9.698114281265	1
0	148	9.797280947932	0
0	150	9.808875618535	1
0	152	9.908042285202	0
0	154	9.922630128976	1
0	156	10.021796795643	0
0	158	10.11306387172	1
0	160	10.212230538387	0
0	162	10.385221003973	1
0	164	10.48438767064	0
0	166	10.593974800543	1
0	168	10.60966301986	2
0	171	10.708829686527	0
0	173	11.015668381901	1
0	175	11.114835048568	0
0	177	11.175637046343	1
0	179	11.27480371301	0
0	181	11.693583073053	1
0	183	11.79274973972	0
0	185	12.084769175848	1
0	187	12.183935842515	0
0	189	12.624328376599	1
0	191	12.710147106856	2
0	194	12.809313773523	0
0	196	13.458397146062	1
0	198	13.525411926746	2
0	201	13.624578593413	0
0	203	13.92989802977	1
0	205	14.029064696437	0
0	207	14.263427568466	1
0	209	14.328280984154	2
0	212	14.427447650821	0
0	214	14.531643103322	1
0	216	14.630809769989	0
0	218	14.8784687082	1
0	220	14.977635374867	0
0	222	15.165377138678	1
0	224	15.264543805345	0
0	226	15.325631527136	1
0	228	15.424798193803	0
0	230	16.30427827103	1
0	232	16.403444937697	0
0	234	16.734158344025	1
0	236	16.833325010692	0
0	238	16.852166095762	1
0	240	16.874645628638	2
0	243	16.973812295305	0
0	245	16.986624322522	1
0	247	17.085790989189	0
0	249	17.935144096557	1
0	251	18.034310763224	0
0	253	18.725772305676	1
0	255	18.824938972343	0
0	257	19.252386830498	1
0	259	19.351553497165	0
0	261	19.418077688169	1
0	263	19.517244354836	0
0	265	19.774228234649	1
0	267	19.873394901316	0
0	269	19.946835360017	1
0	271	20.046002026684	0
0	273	20.899271107908	1
0	275	20.998437774575	0
0	277	21.182096137347	1
0	279	21.281262804014	0
0	281	21.293791387336	1
0	283	21.392958054003	0
0	285	21.414741607259	1
0	287	21.513908273926	0
0	289	22.835751057954	1
0	291	22.934917724621	0
0	293	23.077925606587	1
0	295	23.177092273254	0
0	297	23.259829873509	1
0	299	23.358996540176	0
0	301	23.56463788877	1
0	303	23.663804555437	0
0	305	23.684143316727	1
0	307	23.783309983394	0
0	309	23.990701287604	1
0	311	24.089867954271	0
0	313	24.298382431377	1
0	315	24.397549098044	0
0	317	24.399812674718	1
0	319	24.498979341385	0
0	321	24.51558091539	1
0	323	24.614747582057	0
0	325	25.477771201204	1
0	327	25.576937867871	0
0	329	26.191299712925	1
0	331	26.290466379592	0
0	333	26.306367983364	1
0	335	26.405534650031	0
0	337	26.989681205897	1
0	339	27.088847872564	0
0	341	27.477726494696	1
0	343	27.576893161363	0
0	345	28.388036082488	1
0	347	28.487202749155	0
0	349	28.559451739151	1
0	351	28.658618405818	0
0	353	28.748150856049	1
0	355	28.847317522716	0
0	357	30.339424795074	1
0	359	30.438591461741	0
0	361	30.721256470342	1
0	363	30.814997465067	2
0	366	30.914164131734	0
0	368	30.973465439831	1
0	370	30.994781907992	2
0	373	31.093948574659	0
0	375	31.237726150807	1
0	377	31.336892817474	0
0	379	31.954436554098	1
0	381	32.053603220765	0
0	383	32.165265021376	1
0	385	32.264431688043	0
0	387	32.506587503681	1
0	389	32.605754170348	0
0	391	32.738127493944	1
0	393	32.746019618903	2
0	396	32.84518628557	0
0	398	33.002615355846	1
0	400	33.101782022513	0
0	402	33.115246182955	1
0	404	33.214412849622	0
0	406	33.321382380099	1
0	408	33.376682428063	2
0	411	33.47584909473	0
0	413	34.961135618877	1
0	415	35.060302285544	0
0	417	35.579389807203	1
0	419	35.606441651518	2
0	422	35.705608318185	0
0	424	36.155211655157	1
0	426	36.254378321824	0
0	428	36.570003266562	1
0	430	36.669169933229	0
0	432	36.82802373893	1
0	434	36.851208197093	2
0	437	36.95037486376	0
0	439	37.156658987384	1
0	441	37.255825654051	0
0	443	38.125455389404	1
0	445	38.224622056071	0
0	447	38.394822579456	1
0	449	38.452670519655	2
0	452	38.551837186322	0
0	454	38.56851673147	1
0	456	38.667683398137	0
0	458	39.226601169908	1
0	460	39.325767836575	0
0	462	39.773869806593	1
0	464	39.87303647326	0
0	466	39.912344891463	1
0	468	40.01151155813	0
0	470	40.097973391908	1
0	472	40.197140058575	0
0	474	40.500673117419	1
0	476	40.599839784086	0
0	478	40.929896465954	1
0	480	41.029063132621	0
0	482	41.318166409145	1
0	484	41.330533721406	2
0	487	41.429700388073	0
0	489	41.535018941349	1
0	491	41.634185608016	0
0	493	41.970684642106	1
0	495	42.069851308773	0
0	497	42.147500427855	1
0	499	42.246667094522	0
0	501	42.497909136225	1
0	503	42.597075802892	0
0	505	42.60750135277	1
0	507	42.706668019437	0
0	509	42.765712937087	1
0	511	42.864879603754	0
0	513	43.237130707397	1
0	515	43.336297374064	0
0	517	43.601159167467	1
0	519	43.700325834134	0
0	521	44.051441429903	1
0	523	44.15060809657	0
0	525	44.335613361954	1
0	527	44.434780028621	0
0	529	44.805413034652	1
0	531	44.904579701319	0
0	533	44.986778321855	1
0	535	45.085944988522	0
0	537	45.096013019622	1
0	539	45.195179686289	0
0	541	45.762261323373	1
0	543	45.852997584483	2
0	546	45.95216425115	0
0	548	46.042727456648	1
0	550	46.057940383253	2
0	553	46.15710704992	0
0	555	46.382320602161	1
0	557	46.481487268828	0
0	559	46.786971288431	1
0	561	46.840461373768	2
0	564	46.939628040435	0
0	566	47.412355104729	1
0	568	47.511521771396	0
0	570	47.712741038566	1
0	572	47.811907705233	0
0	574	47.939996789308	1
0	576	47.952781561476	2
0	579	48.051948228143	0
0	581	48.067020134089	1
0	583	48.166186800756	0
0	585	48.263477538095	1
0	587	48.328448200085	2
0	590	48.427614866752	0
0	592	48.941761210175	1
0	594	49.040927876842	0
0	596	49.765750837258	1
0	598	49.864917503925	0
0	600	50.157031285873	1
0	602	50.25619795254	0
0	604	50.646620402073	1
0	606	50.74578706874	0
0	608	51.163146023989	1
0	610	51.262312690656	0
0	612	51.527467799332	1
0	614	51.577203541526	2
0	617	51.676370208193	0
0	619	51.873633734868	1
0	621	51.972800401535	0
0	623	52.074761393773	1
0	625	52.17392806044	0
0	627	52.734641864681	1
0	629	52.833808531348	0
0	631	53.308162647527	1
0	633	53.407329314194	0
0	635	54.319750731132	1
0	637	54.359454577881	2
0	640	54.458621244548	0
0	642	54.925898259354	1
0	644	55.025064926021	0
0	646	55.112595526041	1
0	648	55.211762192708	0
0	650	55.643214688657	1
0	652	55.742381355324	0
0	654	56.600553827319	1
0	656	56.699720493986	0
0	658	56.967742495697	1
0	660	57.066909162364	0
0	662	57.086694472612	1
0	664	57.185861139279	0
0	666	57.358532600649	1
0	668	57.457699267316	0
0	670	57.591735304712	1
0	672	57.665440543299	2
0	674	57.686004691005	2
0	678	57.785171357672	0
0	680	58.102677590968	1
0	682	58.201844257635	0
0	684	58.706984582921	1
0	686	58.806151249588	0
0	688	58.97396517916	1
0	690	59.073131845827	0
0	692	59.554759817237	1
0	694	59.581327198921	2
0	697	59.680493865588	0
0	699	59.802429886813	1
0	701	59.809712645691	2
0	704	59.908879312358	0
0	706	60.136654177904	1
0	708	60.198930994681	2
0	711	60.298097661348	0
0	713	61.330114491057	1
0	715	61.429281157724	0
0	717	61.510856167631	1
0	719	61.610022834298	0
0	721	62.347954028368	1
0	723	62.447120695035	0
0	725	62.498075198334	1
0	727	62.591682791111	2
0	730	62.690849457778	0
0	732	62.724037584117	1
0	734	62.795485733024	2
0	737	62.894652399691	0
0	739	64.323662986104	1
0	741	64.422829652771	0
0	743	64.618972914787	1
0	745	64.710619915385	2
0	748	64.772341112205	2
0	751	64.871507778872	0
0	753	64.932287675341	1
0	755	65.031454342008	0
0	757	65.225488006471	1
0	759	65.324654673138	0
0	761	67.173861222039	1
0	763	67.273027888706	0
0	765	67.531005722653	1
0	767	67.63017238932	0
0	769	68.213520574859	1
0	771	68.255669849726	2
0	774	68.354836516393	0
0	776	68.375574476934	1
0	778	68.474741143601	0
0	780	68.990980345091	1
0	782	69.090147011758	0
0	784	69.804397606145	1
0	786	69.903564272812	0
0	788	70.121918170246	1
0	790	70.221084836913	0
0	792	70.53838520041	1
0	794	70.637551867077	0
0	796	70.781288151587	1
0	798	70.880454818254	0
0	800	71.03884517526	1
0	802	71.0663746431	2
0	804	71.105867113153	2
0	808	71.20503377982	0
0	810	71.915664690955	1
0	812	72.01187878843	2
0	815	72.111045455097	0
0	817	72.112873035982	1
0	819	72.156330023177	2
0	822	72.255496689844	0
0	824	72.563607455904	1
0	826	72.602692105833	2
0	828	72.634528328903	2
0	832	72.73369499557	0
0	834	72.764603799624	1
0	836	72.863770466291	0
0	838	72.864141241734	1
0	840	72.963307908401	0
0	842	73.419553226397	1
0	844	73.518719893064	0
0	846	73.623634788691	1
0	848	73.722801455358	0
0	850	73.77002771173	1
0	852	73.811215287628	2
0	855	73.910381954295	0
0	857	73.980468527597	1
0	859	74.073925355778	2
0	862	74.173092022445	0
0	864	74.223762530848	1
0	866	74.322929197515	0
0	868	74.446733319137	1
0	870	74.473508041043	2
0	872	74.48758328333	2
0	874	74.532512007373	2
0	879	74.63167867404	0
0	881	74.772207189558	1
0	883	74.871373856225	0
0	885	75.312675657254	1
0	887	75.411842323921	0
0	889	75.547102337262	1
0	891	75.646269003929	0
0	893	75.88032627783	1
0	895	75.94087780878	2
0	898	76.040044475447	0
0	900	76.059708305709	1
0	902	76.158874972376	0
0	904	76.249583353885	1
0	906	76.348750020552	0
0	908	76.371788230534	1
0	910	76.470954897201	0
0	912	76.895605213212	1
0	914	76.994771879879	0
0	916	77.437518169939	1
0	918	77.536684836606	0
0	920	77.558894785155	1
0	922	77.658061451822	0
0	924	77.808368998829	1
0	926	77.907535665496	0
0	928	77.992988733241	1
0	930	78.007384452001	2
0	933	78.106551118668	0
0	935	78.432214896858	1
0	937	78.531381563525	0
0	939	78.884513987443	1
0	941	78.98368065411	0
0	943	79.181124462862	1
0	945	79.280291129529	0
0	947	79.330882920794	1
0	949	79.430049587461	0
0	951	79.463299986968	1
0	953	79.512802051839	2
0	956	79.611968718506	0
0	958	79.808593607345	1
0	960	79.907760274012	0
0	962	80.019624011118	1
0	964	80.118790677785	0
0	966	80.172704034134	1
0	968	80.271870700801	0
0	970	80.643170268257	1
0	972	80.683478594651	2
0	975	80.782645261318	0
0	977	80.900920050865	1
0	979	81.000086717532	0
0	981	81.624058232634	1
0	983	81.723224899301	0
0	985	81.94393073073	1
0	987	82.043097397397	0
0	989	82.272820855652	1
0	991	82.371987522319	0
0	993	82.467226065268	1
0	995	82.566392731935	0
0	997	83.054845870448	1
0	999	83.154012537115	0
0	1001	83.928784881825	1
0	1003	83.936447656997	2
0	1005	83.941418853532	2
0	1007	83.958114079388	2
0	1012	84.057280746055	0
0	1014	84.095902502676	1
0	1016	84.195069169343	0
0	1018	84.243793508243	1
0	1020	84.332187843086	2
0	1022	84.33341081243	2
0	1026	84.432577479097	0
0	1028	84.436161478949	1
0	1030	84.535328145616	0
0	1032	85.045119479586	1
0	1034	85.144286146253	0
0	1036	85.686497795739	1
0	1038	85.758038764984	2
0	1041	85.857205431651	0
0	1043	86.018112668393	1
0	1045	86.021098888297	2
0	1048	86.120265554964	0
0	1050	86.324021983211	1
0	1052	86.396084740902	2
0	1055	86.495251407569	0
0	1057	86.534867756149	1
0	1059	86.628678601189	2
0	1062	86.707341963188	2
0	1065	86.806508629855	0
0	1067	86.86401160842	1
0	1069	86.963178275087	0
0	1071	87.592836653883	1
0	1073	87.69200332055	0
0	1075	87.694168347156	1
0	1077	87.793335013823	0
0	1079	87.817485743463	1
0	1081	87.91665241013	0
0	1083	87.964658492433	1
0	1085	88.009169172414	2
0	1088	88.108335839081	0
0	1090	88.236173392743	1
0	1092	88.33534005941	0
0	1094	88.45537645339	1
0	1096	88.554543120057	0
0	1098	88.56230086534	1
0	1100	88.661467532007	0
0	1102	89.053923095238	1
0	1104	89.153089761905	0
0	1106	89.48566008359	1
0	1108	89.584826750257	0
0	1110	90.034297451723	1
0	1112	90.13346411839	0
0	1114	90.274900569498	1
0	1116	90.374067236165	0
0	1118	90.39352973766	1
0	1120	90.492696404327	0
0	1122	90.614101370381	1
0	1124	90.713268037048	0
0	1126	90.859226927759	1
0	1128	90.958393594426	0
0	1130	91.252777417511	1
0	1132	91.351944084178	0
0	1134	91.561390377486	1
0	1136	91.660557044153	0
0	1138	92.633107971206	1
0	1140	92.67394896558	2
0	1143	92.773115632247	0
0	1145	92.787652828752	1
0	1147	92.886819495419	0
0	1149	93.010818338942	1
0	1151	93.031431814668	2
0	1154	93.130598481335	0
0	1156	93.134645752323	1
0	1158	93.23381241899	0
0	1160	93.239587392571	1
0	1162	93.338754059238	0
0	1164	93.428259345002	1
0	1166	93.527426011669	0
0	1168	94.332699717115	1
0	1170	94.431866383782	0
0	1172	94.54889214668	1
0	1174	94.648058813347	0
0	1176	94.894659576614	1
0	1178	94.993826243281	0
0	1180	95.101063358581	1
0	1182	95.123893068851	2
0	1185	95.223059735518	0
0	1187	95.464252230271	1
0	1189	95.563418896938	0
0	1191	95.761944026469	1
0	1193	95.821339845423	2
0	1196	95.92050651209	0
0	1198	96.179291987652	1
0	1200	96.278458654319	0
0	1202	96.34551435802	1
0	1204	96.444681024687	0
0	1206	96.474746900017	1
0	1208	96.573913566684	0
0	1210	96.669822453858	1
0	1212	96.768989120525	0
0	1214	97.319929523225	1
0	1216	97.419096189892	0
0	1218	97.655861112655	1
0	1220	97.736904789916	2
0	1223	97.787606807817	2
0	1226	97.886773474484	0
0	1228	98.169611777087	1
0	1230	98.268778443754	0
0	1232	98.966829752878	1
0	1234	99.065996419545	0
0	1236	99.188287071179	1
0	1238	99.287453737846	0
0	1240	99.901833555586	1
0	1242	99.928515003196	2
0	1244	99.932231984766	2
0	1246	99.971166946708	2
0	1251	100.070333613375	0
0	1253	100.497287939376	1
0	1255	100.596454606043	0
0	1257	101.083583663991	1
0	1259	101.182750330658	0
0	1261	101.922232734104	1
0	1263	101.997885337715	2
0	1266	102.097052004382	0
0	1268	102.521567393784	1
0	1270	102.620734060451	0
0	1272	103.419558590437	1
0	1274	103.423005722145	2
0	1277	103.522172388812	0
0	1279	103.547530111468	1
0	1281	103.646696778135	0
0	1283	103.702714617569	1
0	1285	103.801881284236	0
0	1287	104.209767858816	1
0	1289	104.308934525483	0
0	1291	104.565503761922	1
0	1293	104.664670428589	0
0	1295	104.971736832987	1
0	1297	105.070903499654	0
0	1299	105.096356263541	1
0	1301	105.195522930208	0
0	1303	105.410739932841	1
0	1305	105.509906599508	0
0	1307	105.586479852286	1
0	1309	105.685646518953	0
0	1311	105.736016298051	1
0	1313	105.835182964718	0
0	1315	106.600822893468	1
0	1317	106.699989560135	0
0	1319	107.035146429575	1
0	1321	107.106586458726	2
0	1324	107.205753125393	0
0	1326	107.457529621199	1
0	1328	107.556696287866	0
0	1330	107.690885941203	1
0	1332	107.79005260787	0
0	1334	107.804131873064	1
0	1336	107.903298539731	0
0	1338	108.082607218488	1
0	1340	108.181773885155	0
0	1342	108.278738802203	1
0	1344	108.37790546887	0
0	1346	108.51742128179	1
0	1348	108.616587948457	0
0	1350	108.827003227927	1
0	1352	108.902419674023	2
0	1355	109.00158634069	0
0	1357	109.027605768807	1
0	1359	109.050496593465	2
0	1362	109.149663260132	0
0	1364	109.18389028895	1
0	1366	109.283056955617	0
0	1368	110.400877458371	1
0	1370	110.500044125038	0
0	1372	110.810538545699	1
0	1374	110.909705212366	0
0	1376	110.956909459043	1
0	1378	111.05607612571	0
0	1380	111.415860165568	1
0	1382	111.515026832235	0
0	1384	111.816880858877	1
0	1386	111.916047525544	0
0	1388	111.969632411508	1
0	1390	112.068799078175	0
0	1392	112.172772768481	1
0	1394	112.271939435148	0
0	1396	112.802979917269	1
0	1398	112.902146583936	0
0	1400	113.325489370986	1
0	1402	113.424656037653	0
0	1404	113.714102372887	1
0	1406	113.813269039554	0
0	1408	114.15554824364	1
0	1410	114.254714910307	0
0	1412	114.29802489207	1
0	1414	114.397191558737	0
0	1416	114.411214845332	1
0	1418	114.510381511999	0
0	1420	114.554121091783	1
0	1422	114.65328775845	0
0	1424	114.905643146122	1
0	1426	115.004809812789	0
0	1428	115.018333212347	1
0	1430	115.117499879014	0
0	1432	115.149673526439	1
0	1434	115.248840193106	0
0	1436	116.175627192822	1
0	1438	116.274793859489	0
0	1440	116.276298279761	1
0	1442	116.279203854818	2
0	1445	116.378370521485	0
0	1447	116.933856337462	1
0	1449	117.033023004129	0
0	1451	117.573100497717	1
0	1453	117.603549230395	2
0	1456	117.702715897062	0
0	1458	117.781743069554	1
0	1460	117.880909736221	0
0	1462	118.068217481817	1
0	1464	118.167384148484	0
0	1466	118.366151830465	1
0	1468	118.465318497132	0
0	1470	118.801217354637	1
0	1472	118.900384021304	0
0	1474	119.774116258378	1
0	1476	119.873282925045	0
0	1478	120.164435394227	1
0	1480	120.263602060894	0
0	1482	121.004503163383	1
0	1484	121.10366983005	0
0	1486	121.526268881887	1
0	1488	121.611527581536	2
0	1491	121.706384652396	2
0	1494	121.805551319063	0
0	1496	122.018748045954	1
0	1498	122.117914712621	0
0	1500	122.550839482615	1
0	1502	122.650006149282	0
0	1504	122.819400366441	1
0	1506	122.836104252496	2
0	1509	122.935270919163	0
0	1511	122.95792571132	1
0	1513	122.987529427204	2
0	1516	123.086696093871	0
0	1518	123.21407819516	1
0	1520	123.253970558679	2
0	1523	123.353137225346	0
0	1525	123.463135337482	1
0	1527	123.562302004149	0
0	1529	123.704969259812	1
0	1531	123.804135926479	0
0	1533	124.205479578424	1
0	1535	124.304646245091	0
0	1537	124.342234861763	1
0	1539	124.44140152843	0
0	1541	124.600989337218	1
0	1543	124.672889731729	2
0	1546	124.772056398396	0
0	1548	124.952053805202	1
0	1550	125.051220471869	0
0	1552	125.698525888518	1
0	1554	125.742456471539	2
0	1557	125.841623138206	0
0	1559	125.954947706747	1
0	1561	126.054114373414	0
0	1563	126.088221924612	1
0	1565	126.187388591279	0
0	1567	126.96186991254	1
0	1569	127.061036579207	0
0	1571	127.632945763067	1
0	1573	127.732112429734	0
0	1575	127.772510496746	1
0	1577	127.864372623988	2
0	1580	127.963539290655	0
0	1582	128.303675014667	1
0	1584	128.402841681334	0
0	1586	128.816540007144	1
0	1588	128.915706673811	0
0	1590	128.979404053286	1
0	1592	129.007137542933	2
0	1595	129.1063042096	0
0	1597	129.210937784104	1
0	1599	129.310104450771	0
0	1601	129.77719040979	1
0	1603	129.855079507433	2
0	1606	129.9542461741	0
0	1608	130.041831341662	1
0	1610	130.072338383769	2
0	1613	130.171505050436	0
0	1615	130.628939506063	1
0	1617	130.72810617273	0
0	1619	130.778899504322	1
0	1621	130.878066170989	0
0	1623	131.067356970168	1
0	1625	131.166523636835	0
0	1627	131.298955084134	1
0	1629	131.398121750801	0
0	1631	131.521899855438	1
0	1633	131.621066522105	0
0	1635	132.82584599106	1
0	1637	132.925012657727	0
0	1639	133.542025539905	1
0	1641	133.641192206572	0
0	1643	133.956549152396	1
0	1645	134.055715819063	0
0	1647	134.419876771511	1
0	1649	134.433654757616	2
0	1651	134.43662609908	2
0	1653	134.473001567015	2
0	1658	134.572168233682	0
0	1660	135.0220956382	1
0	1662	135.121262304867	0
0	1664	135.147258499169	1
0	1666	135.246425165836	0
0	1668	135.573721543422	1
0	1670	135.672888210089	0
0	1672	135.729313797689	1
0	1674	135.828480464356	0
0	1676	135.868456736816	1
0	1678	135.967623403483	0
0	1680	136.141553730567	1
0	1682	136.240720397234	0
0	1684	136.245346167786	1
0	1686	136.252739669159	2
0	1689	136.351906335826	0
0	1691	136.478340933948	1
0	1693	136.577507600615	0
0	1695	136.793705638066	1
0	1697	136.892872304733	0
0	1699	137.435306764738	1
0	1701	137.472302206169	2
0	1704	137.571468872836	0
0	1706	138.015452526234	1
0	1708	138.114619192901	0
0	1710	138.12364904797	1
0	1712	138.222815714637	0
0	1714	138.556365063246	1
0	1716	138.655531729913	0
0	1718	138.758348761093	1
0	1720	138.790695208755	2
0	1722	138.828012720016	2
0	1726	138.927179386683	0
0	1728	139.791071422568	1
0	1730	139.890238089235	0
0	1732	140.027473808827	1
0	1734	140.126640475494	0
0	1736	140.172195522947	1
0	1738	140.271362189614	0
0	1740	140.572694111177	1
0	1742	140.671860777844	0
0	1744	142.140054345293	1
0	1746	142.23922101196	0
0	1748	142.67971674441	1
0	1750	142.778883411077	0
0	1752	142.957440786214	1
0	1754	143.056607452881	0
0	1756	143.087318898403	1
0	1758	143.18648556507	0
0	1760	143.28548311524	1
0	1762	143.384649781907	0
0	1764	143.404717016139	1
0	1766	143.427095829286	2
0	1769	143.526262495953	0
0	1771	143.536224420826	1
0	1773	143.635391087493	0
0	1775	143.746133661811	1
0	1777	143.845300328478	0
0	1779	143.909898269001	1
0	1781	143.977673239869	2
0	1784	144.076839906536	0
0	1786	144.214851995381	1
0	1788	144.314018662048	0
0	1790	144.892235427664	1
0	1792	144.991402094331	0
0	1794	145.319722876002	1
0	1796	145.394676509782	2
0	1799	145.493843176449	0
0	1801	145.935074485366	1
0	1803	146.034241152033	0
0	1805	146.906573791139	1
0	1807	147.005740457806	0
0	1809	147.348409346833	1
0	1811	147.4475760135	0
0	1813	147.500374345207	1
0	1815	147.577436476205	2
0	1818	147.676603142872	0
0	1820	147.695332389817	1
0	1822	147.742035555233	2
0	1825	147.799676900691	2
0	1828	147.898843567358	0
0	1830	148.042160697645	1
0	1832	148.060857046417	2
0	1835	148.160023713084	0
0	1837	148.179291262655	1
0	1839	148.193852678199	2
0	1842	148.293019344866	0
0	1844	148.564148667097	1
0	1846	148.663315333764	0
0	1848	148.673753963256	1
0	1850	148.772920629923	0
0	1852	148.83568157967	1
0	1854	148.934848246337	0
0	1856	149.04722499858	1
0	1858	149.146391665247	0
0	1860	149.322538666745	1
0	1862	149.421705333412	0
0	1864	149.844216068999	1
0	1866	149.935533650603	2
0	1869	150.03470031727	0
0	1871	150.265285966819	1
0	1873	150.364452633486	0
0	1875	150.717395357891	1
0	1877	150.816562024558	0
0	1879	150.943747557019	1
0	1881	151.042914223686	0
0	1883	151.373109243306	1
0	1885	151.389045165883	2
0	1887	151.428091941191	2
0	1891	151.527258607858	0
0	1893	151.713866690941	1
0	1895	151.813033357608	0
0	1897	152.046305368996	1
0	1899	152.081089771581	2
0	1902	152.180256438248	0
0	1904	152.460166602661	1
0	1906	152.559277720132	2
0	1909	152.658444386799	0
0	1911	152.919890251999	1
0	1913	153.019056918666	0
0	1915	153.035805095009	1
0	1917	153.134971761676	0
0	1919	153.410618885415	1
0	1921	153.509785552082	0
0	1923	154.044795444913	1
0	1925	154.14396211158	0
0	1927	154.60719262028	1
0	1929	154.65984150819	2
0	1932	154.752036374012	2
0	1935	154.791096579577	2
0	1938	154.890263246244	0
0	1940	155.35474356913	1
0	1942	155.358572101618	2
0	1945	155.457738768285	0
0	1947	155.58854913258	1
0	1949	155.687715799247	0
0	1951	156.006050383343	1
0	1953	156.10521705001	0
0	1955	156.59975859935	1
0	1957	156.698925266017	0
0	1959	157.057386066491	1
0	1961	157.156552733158	0
0	1963	157.983567742737	1
0	1965	158.0635770546	2
0	1968	158.162743721267	0
0	1970	158.274346081077	1
0	1972	158.330132672095	2
0	1975	158.429299338762	0
0	1977	158.574249792565	1
0	1979	158.612913192069	2
0	1982	158.712079858736	0
0	1984	159.469207494248	1
0	1986	159.568374160915	0
0	1988	160.039998728019	1
0	1990	160.139165394686	0
0	1992	160.282084116319	1
0	1994	160.381250782986	0
0	1996	160.750929517681	1
0	1998	160.850096184348	0
0	2000	160.858718878034	1
0	2002	160.957885544701	0
0	2004	161.478321098678	1
0	2006	161.577487765345	0
0	2008	162.504369756439	1
0	2010	162.603536423106	0
0	2012	162.661580093293	1
0	2014	162.729898532677	2
0	2017	162.829065199344	0
0	2019	163.693171837408	1
0	2021	163.792338504075	0
0	2023	163.814190582052	1
0	2025	163.913357248719	0
0	2027	163.960781204336	1
0	2029	164.059947871003	0
0	2031	164.061176793612	1
0	2033	164.160343460279	0
0	2035	164.216453711272	1
0	2037	164.315620377939	0
0	2039	164.54463884769	1
0	2041	164.643805514357	0
0	2043	164.819151304821	1
0	2045	164.918317971488	0
0	2047	165.343544819958	1
0	2049	165.442711486625	0
0	2051	165.511647230031	1
0	2053	165.610813896698	0
0	2055	166.91803280304	1
0	2057	167.017199469707	0
0	2059	167.132733829529	1
0	2061	167.182121252137	2
0	2063	167.208181178384	2
0	2067	167.307347845051	0
0	2069	167.772075896815	1
0	2071	167.822270893902	2
0	2073	167.847911211482	2
0	2077	167.947077878149	0
0	2079	168.756161218451	1
0	2081	168.855327885118	0
0	2083	168.887969440521	1
0	2085	168.978892578591	2
0	2088	169.078059245258	0
0	2090	169.529301846344	1
0	2092	169.628468513011	0
0	2094	170.143329395488	1
0	2096	170.242496062155	0
0	2098	170.313775577893	1
0	2100	170.41294224456	0
0	2102	170.945841669754	1
0	2104	171.045008336421	0
0	2106	171.081983602521	1
0	2108	171.099015141909	2
0	2111	171.198181808576	0
0	2113	171.65494713611	1
0	2115	171.754113802777	0
0	2117	171.839949203773	1
0	2119	171.93911587044	0
0	2121	171.951244026989	1
0	2123	172.050410693656	0
0	2125	172.258422498633	1
0	2127	172.3575891653	0
0	2129	172.403101051423	1
0	2131	172.50226771809	0
0	2133	172.513346075985	1
0	2135	172.612512742652	0
0	2137	172.615439265695	1
0	2139	172.714605932362	0
0	2141	172.743877385671	1
0	2143	172.843044052338	0
0	2145	172.88229753872	1
0	2147	172.924468278904	2
0	2149	172.931791860079	2
0	2153	173.030958526746	0
0	2155	173.148468691433	1
0	2157	173.2476353581	0
0	2159	173.549992736626	1
0	2161	173.649159403293	0
0	2163	173.660784292185	1
0	2165	173.704786826759	2
0	2168	173.803953493426	0
0	2170	174.016790203225	1
0	2172	174.115956869892	0
0	2174	174.29455644802	1
0	2176	174.393723114687	0
0	2178	174.418019369078	1
0	2180	174.42354868799	2
0	2183	174.522715354657	0
0	2185	174.703033836451	1
0	2187	174.802200503118	0
0	2189	174.951428437686	1
0	2191	175.050595104353	0
0	2193	175.575910867126	1
0	2195	175.675077533793	0
0	2197	175.909351732203	1
0	2199	176.00851839887	0
0	2201	176.008895279135	1
0	2203	176.079651863176	2
0	2206	176.178818529843	0
0	2208	176.254970607301	1
0	2210	176.354137273968	0
0	2212	176.367046194229	1
0	2214	176.443842018777	2
0	2217	176.476447057591	2
0	2220	176.575613724258	0
0	2222	176.666316419566	1
0	2224	176.765483086233	0
0	2226	176.976244220919	1
0	2228	177.075410887586	0
0	2230	177.782978751824	1
0	2232	177.882145418491	0
0	2234	178.064489282743	1
0	2236	178.16365594941	0
0	2238	178.719118777968	1
0	2240	178.818285444635	0
0	2242	178.949876759278	1
0	2244	179.049043425945	0
0	2246	179.314654305424	1
0	2248	179.413820972091	0
0	2250	181.397322986425	1
0	2252	181.496489653092	0
0	2254	181.511357630205	1
0	2256	181.610524296872	0
0	2258	181.616117156627	1
0	2260	181.715283823294	0
0	2262	182.127044109713	1
0	2264	182.22621077638	0
0	2266	182.620080638769	1
0	2268	182.679728778575	2
0	2271	182.745970462724	2
0	2273	182.775379799591	2
0	2277	182.874546466258	0
0	2279	183.03498148418	1
0	2281	183.134148150847	0
0	2283	183.460818577165	1
0	2285	183.551315086349	2
0	2288	183.604880984319	2
0	2291	183.704047650986	0
0	2293	183.83743881603	1
0	2295	183.874870261654	2
0	2298	183.974036928321	0
0	2300	184.827302610611	1
0	2302	184.926469277278	0
0	2304	185.210944504939	1
0	2306	185.310111171606	0
0	2308	185.72147509207	1
0	2310	185.820641758737	0
0	2312	185.851348943542	1
0	2314	185.950515610209	0
0	2316	186.139955566005	1
0	2318	186.239122232672	0
0	2320	186.420532988031	1
0	2322	186.519699654698	0
0	2324	187.310592791947	1
0	2326	187.409759458614	0
0	2328	187.426580495994	1
0	2330	187.525747162661	0