version 3
run RBAAloha-5-20250224-10:10:26-12720
attr configname RBAAloha
attr datetime 20250224-10:10:26
attr datetimef 20250224-101026
attr experiment RBAAloha
attr inifile omnetpp.ini
attr iterationvars $0=1000s
attr iterationvarsd 1000s
attr iterationvarsf 1000s-
attr measurement $0=1000s
attr network Aloha
attr processid 12720
attr repetition 2
attr replication #2
attr resultdir results
attr runnumber 5
attr seedset 5
config description "pure Aloha, overloaded"
config Aloha.host[*].iaTime exponential(2s)
config repeat 3
config sim-time-limit 1000s
config network Aloha
config Aloha.numHosts 20
config Aloha.slotTime 0s
config Aloha.txRate 9.6kbps
config Aloha.host[*].pkLenBits 952b
config **.x "uniform(0m, 1000m)"
config **.y "uniform(0m, 1000m)"
config **.animationHoldTimeOnCollision 0s
config **.idleAnimationSpeed 1
config **.transmissionEdgeAnimationSpeed 1e-6
config **.midTransmissionAnimationSpeed 1e-1

vector 0 Aloha.server serverChannelState:vector ETV
attr enum IDLE=0,TRANSMISSION=1,COLLISION=2
attr recordingmode vector
attr source channelState
attr title "Channel state"
vector 1 Aloha.server channelUtilization:vector ETV
attr interpolationmode linear
attr recordingmode vector
attr source timeavg(receive)
attr title "channel utilization"
vector 2 Aloha.host[0] radioState:vector ETV
attr enum IDLE=0,TRANSMIT=1
attr recordingmode vector
attr source state
attr title "Radio state"
vector 3 Aloha.host[1] radioState:vector ETV
attr enum IDLE=0,TRANSMIT=1
attr recordingmode vector
attr source state
attr title "Radio state"
vector 4 Aloha.host[2] radioState:vector ETV
attr enum IDLE=0,TRANSMIT=1
attr recordingmode vector
attr source state
attr title "Radio state"
vector 5 Aloha.host[3] radioState:vector ETV
attr enum IDLE=0,TRANSMIT=1
attr recordingmode vector
attr source state
attr title "Radio state"
vector 6 Aloha.host[4] radioState:vector ETV
attr enum IDLE=0,TRANSMIT=1
attr recordingmode vector
attr source state
attr title "Radio state"
vector 7 Aloha.host[5] radioState:vector ETV
attr enum IDLE=0,TRANSMIT=1
attr recordingmode vector
attr source state
attr title "Radio state"
vector 8 Aloha.host[6] radioState:vector ETV
attr enum IDLE=0,TRANSMIT=1
attr recordingmode vector
attr source state
attr title "Radio state"
vector 9 Aloha.host[7] radioState:vector ETV
attr enum IDLE=0,TRANSMIT=1
attr recordingmode vector
attr source state
attr title "Radio state"
vector 10 Aloha.host[8] radioState:vector ETV
attr enum IDLE=0,TRANSMIT=1
attr recordingmode vector
attr source state
attr title "Radio state"
vector 11 Aloha.host[9] radioState:vector ETV
attr enum IDLE=0,TRANSMIT=1
attr recordingmode vector
attr source state
attr title "Radio state"
vector 12 Aloha.host[10] radioState:vector ETV
attr enum IDLE=0,TRANSMIT=1
attr recordingmode vector
attr source state
attr title "Radio state"
vector 13 Aloha.host[11] radioState:vector ETV
attr enum IDLE=0,TRANSMIT=1
attr recordingmode vector
attr source state
attr title "Radio state"
vector 14 Aloha.host[12] radioState:vector ETV
attr enum IDLE=0,TRANSMIT=1
attr recordingmode vector
attr source state
attr title "Radio state"
vector 15 Aloha.host[13] radioState:vector ETV
attr enum IDLE=0,TRANSMIT=1
attr recordingmode vector
attr source state
attr title "Radio state"
vector 16 Aloha.host[14] radioState:vector ETV
attr enum IDLE=0,TRANSMIT=1
attr recordingmode vector
attr source state
attr title "Radio state"
vector 17 Aloha.host[15] radioState:vector ETV
attr enum IDLE=0,TRANSMIT=1
attr recordingmode vector
attr source state
attr title "Radio state"
vector 18 Aloha.host[16] radioState:vector ETV
attr enum IDLE=0,TRANSMIT=1
attr recordingmode vector
attr source state
attr title "Radio state"
vector 19 Aloha.host[17] radioState:vector ETV
attr enum IDLE=0,TRANSMIT=1
attr recordingmode vector
attr source state
attr title "Radio state"
vector 20 Aloha.host[18] radioState:vector ETV
attr enum IDLE=0,TRANSMIT=1
attr recordingmode vector
attr source state
attr title "Radio state"
vector 21 Aloha.host[19] radioState:vector ETV
attr enum IDLE=0,TRANSMIT=1
attr recordingmode vector
attr source state
attr title "Radio state"
0	0	0	0
0	2	0.029377219421	1
0	4	0.049215564805	2
0	7	0.148382231472	0
0	9	0.189828320609	1
0	11	0.196027232342	2
0	14	0.295193899009	0
0	16	0.311356223872	1
0	18	0.362118640242	2
0	21	0.417534197126	2
0	24	0.516700863793	0
0	26	0.563101154167	1
0	28	0.584957371444	2
0	30	0.586252403154	2
0	32	0.618003079049	2
0	35	0.670070879074	2
0	40	0.720456785653	2
0	43	0.793698250702	2
0	46	0.892864917369	0
0	48	1.297887030836	1
0	50	1.397053697503	0
0	52	1.603664194576	1
0	54	1.648050377044	2
0	57	1.747217043711	0
0	59	2.268786071451	1
0	61	2.318770320826	2
0	64	2.376161032438	2
0	66	2.379455877136	2
0	68	2.408026797247	2
0	71	2.458211751158	2
0	76	2.557378417825	0
0	78	2.695898279588	1
0	80	2.795064946255	0
0	82	3.017709724635	1
0	84	3.116876391302	0
0	86	3.117620266743	1
0	88	3.21678693341	0
0	90	3.240765644829	1
0	92	3.339932311496	0
0	94	3.344365651955	1
0	96	3.434370331537	2
0	98	3.43921856877	2
0	101	3.503782914035	2
0	105	3.585435921361	2
0	108	3.684602588028	0
0	110	3.817965600181	1
0	112	3.917132266848	0
0	114	4.002998989358	1
0	116	4.102165656025	0
0	118	4.280327415871	1
0	120	4.379494082538	0
0	122	4.458876128133	1
0	124	4.492362024272	2
0	127	4.591528690939	0
0	129	4.706774215792	1
0	131	4.801363808276	2
0	134	4.900530474943	0
0	136	4.935269290547	1
0	138	5.025260003537	2
0	141	5.124426670204	0
0	143	5.156812344225	1
0	145	5.255979010892	0
0	147	5.272060136472	1
0	149	5.371226803139	0
0	151	5.393706567189	1
0	153	5.430314218507	2
0	155	5.469442322216	2
0	158	5.515168101428	2
0	162	5.602621439712	2
0	165	5.701788106379	0
0	167	5.710480928933	1
0	169	5.722624409738	2
0	172	5.821791076405	0
0	174	5.850672064271	1
0	176	5.949838730938	0
0	178	5.950252862423	1
0	180	6.04941952909	0
0	182	6.172856862166	1
0	184	6.272023528833	0
0	186	6.313578719572	1
0	188	6.340815214915	2
0	190	6.388334804962	2
0	194	6.449120516266	2
0	196	6.451335791176	2
0	200	6.550502457843	0
0	202	6.644619292491	1
0	204	6.645266092856	2
0	206	6.68251558897	2
0	208	6.693536224367	2
0	213	6.792702891034	0
0	215	6.900598873787	1
0	217	6.925082177199	2
0	219	6.987900283152	2
0	223	7.087066949819	0
0	225	7.458400296251	1
0	227	7.497801829695	2
0	229	7.511780869182	2
0	233	7.610947535849	0
0	235	7.713133218046	1
0	237	7.740636759871	2
0	240	7.839803426538	0
0	242	7.847323119557	1
0	244	7.946489786224	0
0	246	8.010179413124	1
0	248	8.109346079791	0
0	250	8.218086586594	1
0	252	8.238283030614	2
0	254	8.270097152779	2
0	258	8.369263819446	0
0	260	8.389562879768	1
0	262	8.488729546435	0
0	264	8.761454558689	1
0	266	8.842342979414	2
0	269	8.941509646081	0
0	271	8.972819732068	1
0	273	9.071986398735	0
0	275	9.176980337643	1
0	277	9.213355713781	2
0	280	9.283160101152	2
0	283	9.382326767819	0
0	285	9.730677592059	1
0	287	9.829844258726	0
0	289	9.832809885881	1
0	291	9.931976552548	0
0	293	9.950159255312	1
0	295	10.008491083943	2
0	298	10.10765775061	0
0	300	10.123270806157	1
0	302	10.145303224812	2
0	305	10.223564387761	2
0	307	10.231663433154	2
0	311	10.330830099821	0
0	313	10.39595456474	1
0	315	10.495121231407	0
0	317	10.609523372786	1
0	319	10.633393665066	2
0	322	10.732560331733	0
0	324	10.739610161998	1
0	326	10.838776828665	0
0	328	10.949772418775	1
0	330	11.037388710722	2
0	333	11.080745014917	2
0	335	11.09882819721	2
0	339	11.190753258382	2
0	342	11.289919925049	0
0	344	11.352656314086	1
0	346	11.451822980753	0
0	348	11.579541982925	1
0	350	11.629714992785	2
0	353	11.728881659452	0
0	355	11.915583102101	1
0	357	11.962199512296	2
0	359	11.995840307044	2
0	362	12.041291552739	2
0	365	12.092686845769	2
0	369	12.191853512436	0
0	371	12.218788755107	1
0	373	12.225680742431	2
0	376	12.324847409098	0
0	378	12.404413775141	1
0	380	12.503580441808	0
0	382	12.532198322426	1
0	384	12.631364989093	0
0	386	12.649818868089	1
0	388	12.748985534756	0
0	390	12.800675480051	1
0	392	12.853831918557	2
0	394	12.889659728438	2
0	397	12.944388916422	2
0	401	13.010420546804	2
0	403	13.02457940278	2
0	407	13.111699872626	2
0	410	13.134480310512	2
0	413	13.233646977179	0
0	415	13.291946331876	1
0	417	13.374869436015	2
0	420	13.392781654314	2
0	423	13.483657719074	2
0	426	13.582824385741	0
0	428	13.626678257626	1
0	430	13.641486167305	2
0	432	13.681883221657	2
0	436	13.781049888324	0
0	438	13.900068002933	1
0	440	13.91770505878	2
0	443	14.016871725447	0
0	445	14.059513430448	1
0	447	14.158680097115	0
0	449	14.36562576941	1
0	451	14.464792436077	0
0	453	14.793423147614	1
0	455	14.892589814281	0
0	457	15.064970067995	1
0	459	15.164136734662	0
0	461	15.181030111904	1
0	463	15.200248435773	2
0	465	15.205341042472	2
0	467	15.214180653183	2
0	469	15.22718240173	2
0	475	15.326349068397	0
0	477	15.414291913576	1
0	479	15.513458580243	0
0	481	15.563658323724	1
0	483	15.662824990391	0
0	485	15.724850834296	1
0	487	15.824017500963	0
0	489	15.891958063839	1
0	491	15.974822751675	2
0	494	16.073989418342	0
0	496	16.184934708172	1
0	498	16.284101374839	0
0	500	16.322204040918	1
0	502	16.373308546325	2
0	505	16.472475212992	0
0	507	16.592059013872	1
0	509	16.611645896696	2
0	512	16.710812563363	0
0	514	16.7835134313	1
0	516	16.843992804889	2
0	519	16.883408964372	2
0	522	16.958031944566	2
0	525	16.99957224969	2
0	527	17.038368676882	2
0	531	17.137535343549	0
0	533	17.138909391035	1
0	535	17.238076057702	0
0	537	17.519818657217	1
0	539	17.547166481929	2
0	542	17.646333148596	0
0	544	17.688438130092	1
0	546	17.787604796759	0
0	548	17.789654003959	1
0	550	17.888820670626	0
0	552	17.895714876755	1
0	554	17.966143736246	2
0	556	17.991260613492	2
0	560	18.090427280159	0
0	562	18.355121112306	1
0	564	18.454287778973	0
0	566	18.483396951398	1
0	568	18.493700320985	2
0	570	18.546574772946	2
0	574	18.645741439613	0
0	576	18.765592482628	1
0	578	18.844512209679	2
0	581	18.89030352428	2
0	583	18.936256525114	2
0	587	19.035423191781	0
0	589	19.040956503662	1
0	591	19.056957955848	2
0	594	19.156124622515	0
0	596	19.2559990432	1
0	598	19.310336337878	2
0	601	19.393523023155	2
0	604	19.430174170393	2
0	607	19.52934083706	0
0	609	19.670444875404	1
0	611	19.769611542071	0
0	613	20.36088503975	1
0	615	20.460051706417	0
0	617	20.6647249937	1
0	619	20.763891660367	0
0	621	21.152062678245	1
0	623	21.222284959663	2
0	626	21.32145162633	0
0	628	21.334055547226	1
0	630	21.388652009555	2
0	633	21.487818676222	0
0	635	21.499032689055	1
0	637	21.552831899763	2
0	640	21.65199856643	0
0	642	21.951969239017	1
0	644	22.03823484268	2
0	647	22.137401509347	0
0	649	22.326639523495	1
0	651	22.425806190162	0
0	653	22.431456266156	1
0	655	22.442531509514	2
0	658	22.541698176181	0
0	660	22.616350932688	1
0	662	22.642105897683	2
0	664	22.704037287553	2
0	668	22.80320395422	0
0	670	22.864112484599	1
0	672	22.963279151266	0
0	674	23.073299438913	1
0	676	23.17246610558	0
0	678	23.239978618536	1
0	680	23.263445307298	2
0	682	23.303932241124	2
0	686	23.403098907791	0
0	688	23.414502278139	1
0	690	23.513668944806	0
0	692	23.577382738957	1
0	694	23.605195687396	2
0	696	23.60968253444	2
0	698	23.637624381829	2
0	703	23.736791048496	0
0	705	23.739776325631	1
0	707	23.788560167087	2
0	710	23.849847299255	2
0	713	23.931191602315	2
0	716	24.030358268982	0
0	718	24.076321430497	1
0	720	24.161358331278	2
0	723	24.260524997945	0
0	725	24.366091652906	1
0	727	24.404098796635	2
0	730	24.501425016717	2
0	733	24.600591683384	0
0	735	24.609522180053	1
0	737	24.612553467993	2
0	739	24.635731625349	2
0	741	24.681081919507	2
0	746	24.780248586174	0
0	748	24.802498503135	1
0	750	24.814952899575	2
0	752	24.899104053835	2
0	756	24.926864927601	2
0	759	25.026031594268	0
0	761	25.108160136704	1
0	763	25.191475630631	2
0	766	25.268183292965	2
0	769	25.318528919129	2
0	771	25.33634756638	2
0	775	25.435514233047	0
0	777	25.62335080406	1
0	779	25.722517470727	0
0	781	25.948008847121	1
0	783	26.047175513788	0
0	785	26.069003195729	1
0	787	26.089119150887	2
0	790	26.17054686519	2
0	793	26.269713531857	0
0	795	26.541909667125	1
0	797	26.641076333792	0
0	799	26.680873288011	1
0	801	26.687384838672	2
0	804	26.786551505339	0
0	806	26.883632578677	1
0	808	26.975743279373	2
0	811	27.07490994604	0
0	813	27.091909049098	1
0	815	27.147494243523	2
0	818	27.24666091019	0
0	820	27.249873245883	1
0	822	27.34903991255	0
0	824	27.5071089623	1
0	826	27.606275628967	0
0	828	27.643740956163	1
0	830	27.728848766679	2
0	833	27.828015433346	0
0	835	28.006891676595	1
0	837	28.027305170935	2
0	839	28.030391897176	2
0	841	28.055449495166	2
0	845	28.12953625181	2
0	849	28.228702918477	0
0	851	28.33355751135	1
0	853	28.343730398212	2
0	855	28.3692031609	2
0	859	28.468369827567	0
0	861	28.531797062072	1
0	863	28.630963728739	0
0	865	28.680583116968	1
0	867	28.779749783635	0
0	869	28.842999582034	1
0	871	28.942166248701	0
0	873	28.978381227452	1
0	875	29.022141756459	2
0	878	29.121308423126	0
0	880	29.400855400878	1
0	882	29.435073547855	2
0	885	29.534240214522	0
0	887	29.572802341694	1
0	889	29.642973996333	2
0	891	29.666598930854	2
0	895	29.765765597521	0
0	897	29.86585167414	1
0	899	29.912853630896	2
0	902	30.012020297563	0
0	904	30.165352929948	1
0	906	30.197141648932	2
0	909	30.296308315599	0
0	911	30.359481099568	1
0	913	30.407370016619	2
0	916	30.506536683286	0
0	918	30.531210690973	1
0	920	30.54538662225	2
0	922	30.568931528377	2
0	926	30.649092157748	2
0	929	30.67855626514	2
0	932	30.777722931807	0
0	934	30.995715641303	1
0	936	31.09488230797	0
0	938	31.096207451247	1
0	940	31.096839010604	2
0	943	31.196005677271	0
0	945	31.250225868818	1
0	947	31.303581479595	2
0	950	31.402748146262	0
0	952	31.568372435939	1
0	954	31.667539102606	0
0	956	31.670341047107	1
0	958	31.769507713774	0
0	960	32.004612768334	1
0	962	32.030521994103	2
0	965	32.12968866077	0
0	967	32.300580484485	1
0	969	32.399747151152	0
0	971	32.465473608136	1
0	973	32.468002194802	2
0	976	32.567168861469	0
0	978	32.630961740897	1
0	980	32.730128407564	0
0	982	32.892908440686	1
0	984	32.992075107353	0
0	986	33.030278802901	1
0	988	33.129445469568	0
0	990	33.223202982436	1
0	992	33.255350188658	2
0	994	33.278593393402	2
0	998	33.377760060069	0
0	1000	33.507805907084	1
0	1002	33.530186782544	2
0	1005	33.607138243174	2
0	1008	33.706304909841	0
0	1010	33.860148939022	1
0	1012	33.906810695782	2
0	1014	33.941998802269	2
0	1018	34.041165468936	0
0	1020	34.129398308711	1
0	1022	34.228564975378	0
0	1024	34.23843398812	1
0	1026	34.337600654787	0
0	1028	34.374320418619	1
0	1030	34.457289931843	2
0	1033	34.497650485546	2
0	1035	34.530735226864	2
0	1039	34.61561461747	2
0	1042	34.714781284137	0
0	1044	34.765241897845	1
0	1046	34.864408564512	0
0	1048	34.885398093618	1
0	1050	34.949746975656	2
0	1053	34.999371524094	2
0	1056	35.089883274442	2
0	1059	35.189049941109	0
0	1061	35.195273663047	1
0	1063	35.278041429393	2
0	1065	35.281234490953	2
0	1067	35.28179788513	2
0	1070	35.305927896867	2
0	1075	35.405094563534	0
0	1077	35.43352729909	1
0	1079	35.532693965757	0
0	1081	35.790732026469	1
0	1083	35.800556772806	2
0	1085	35.863110456253	2
0	1089	35.953187279592	2
0	1092	36.052353946259	0
0	1094	36.061746196046	1
0	1096	36.158755922589	2
0	1099	36.216620876331	2
0	1102	36.315787542998	0
0	1104	36.493531015149	1
0	1106	36.569814074669	2
0	1109	36.642302498235	2
0	1112	36.718552795339	2
0	1115	36.817719462006	0
0	1117	36.8535844025	1
0	1119	36.891876384092	2
0	1122	36.991043050759	0
0	1124	37.056673958087	1
0	1126	37.143797880758	2
0	1129	37.21969965236	2
0	1131	37.240986458045	2
0	1134	37.314302930689	2
0	1138	37.413469597356	0
0	1140	37.536021349165	1
0	1142	37.553639180166	2
0	1144	37.568207193961	2
0	1147	37.640137111738	2
0	1151	37.739303778405	0
0	1153	37.77015064473	1
0	1155	37.869317311397	0
0	1157	38.044011850135	1
0	1159	38.119309353794	2
0	1161	38.134147365936	2
0	1164	38.217311113312	2
0	1168	38.25494971916	2
0	1171	38.354116385827	0
0	1173	38.366341814337	1
0	1175	38.407272805015	2
0	1177	38.433064596704	2
0	1180	38.491371126082	2
0	1184	38.559826161275	2
0	1186	38.582235296439	2
0	1189	38.593612300328	2
0	1193	38.692778966995	0
0	1195	38.783523428338	1
0	1197	38.848803927302	2
0	1200	38.894416274725	2
0	1202	38.910812082783	2
0	1206	39.00997874945	0
0	1208	39.0440584561	1
0	1210	39.143225122767	0
0	1212	39.171068603284	1
0	1214	39.216436979521	2
0	1217	39.315603646188	0
0	1219	39.344671250597	1
0	1221	39.443837917264	0
0	1223	39.449964724905	1
0	1225	39.490919529671	2
0	1227	39.498964307668	2
0	1231	39.598130974335	0
0	1233	39.646147036684	1
0	1235	39.725106643526	2
0	1237	39.744503280046	2
0	1240	39.755012443006	2
0	1242	39.804410659386	2
0	1246	39.851675303303	2
0	1250	39.938033440941	2
0	1253	40.037200107608	0
0	1255	40.0916604318	1
0	1257	40.175396612045	2
0	1260	40.211384791481	2
0	1263	40.310551458148	0
0	1265	40.344749070778	1
0	1267	40.443915737445	0
0	1269	40.596207904083	1
0	1271	40.637409223357	2
0	1274	40.736575890024	0
0	1276	40.799146400576	1
0	1278	40.812261855323	2
0	1281	40.91142852199	0
0	1283	41.280963618416	1
0	1285	41.380130285083	0
0	1287	41.404187339002	1
0	1289	41.436339163869	2
0	1292	41.535505830536	0
0	1294	41.699121722167	1
0	1296	41.797349483875	2
0	1299	41.868723484335	2
0	1302	41.967890151002	0
0	1304	42.064967182981	1
0	1306	42.100828980355	2
0	1308	42.154350723654	2
0	1311	42.198806241705	2
0	1314	42.223032008372	2
0	1317	42.253661751848	2
0	1320	42.301912051595	2
0	1324	42.401078718262	0
0	1326	42.466721140478	1
0	1328	42.565887807145	0
0	1330	42.637778742085	1
0	1332	42.736945408752	0
0	1334	42.788032611116	1
0	1336	42.887199277783	0
0	1338	43.072347482938	1
0	1340	43.171514149605	0
0	1342	43.195544154734	1
0	1344	43.284478250175	2
0	1347	43.374766472477	2
0	1350	43.473933139144	0
0	1352	43.550816546743	1
0	1354	43.64998321341	0
0	1356	43.85094706045	1
0	1358	43.901011023993	2
0	1360	43.917485578381	2
0	1364	44.016652245048	0
0	1366	44.044156680788	1
0	1368	44.143323347455	0
0	1370	44.147994065791	1
0	1372	44.229472829531	2
0	1375	44.247926678187	2
0	1377	44.2863478426	2
0	1381	44.385514509267	0
0	1383	44.445571987526	1
0	1385	44.544738654193	0
0	1387	44.719110086086	1
0	1389	44.803687471347	2
0	1391	44.805321286241	2
0	1394	44.896143558232	2
0	1398	44.995310224899	0
0	1400	45.012275397638	1
0	1402	45.027437248525	2
0	1404	45.062040325665	2
0	1407	45.118905022337	2
0	1411	45.218071689004	0
0	1413	45.424554929093	1
0	1415	45.504165111662	2
0	1418	45.603331778329	0
0	1420	45.942069389041	1
0	1422	45.971596596224	2
0	1425	46.070763262891	0
0	1427	46.306376185231	1
0	1429	46.405542851898	0
0	1431	46.411463006445	1
0	1433	46.510629673112	0
0	1435	46.63674379061	1
0	1437	46.735910457277	0
0	1439	46.744220632599	1
0	1441	46.834977787575	2
0	1443	46.840342180879	2
0	1447	46.939508847546	0
0	1449	47.026120105939	1
0	1451	47.050618984449	2
0	1453	47.116030409437	2
0	1457	47.179641322366	2
0	1460	47.278807989033	0
0	1462	47.412171071832	1
0	1464	47.511337738499	0
0	1466	47.528306671619	1
0	1468	47.591246175509	2
0	1471	47.652476076666	2
0	1473	47.669390117001	2
0	1477	47.768556783668	0
0	1479	47.807212865669	1
0	1481	47.808216836336	2
0	1483	47.864552804326	2
0	1485	47.88500103325	2
0	1489	47.909480694651	2
0	1493	47.986691845252	2
0	1496	48.04665465222	2
0	1498	48.068217994769	2
0	1500	48.08244636663	2
0	1503	48.099129878149	2
0	1508	48.198296544816	0
0	1510	48.233174208008	1
0	1512	48.289137399479	2
0	1515	48.388304066146	0
0	1517	48.462528829946	1
0	1519	48.464986987236	2
0	1521	48.47177735403	2
0	1525	48.570944020697	0
0	1527	48.595536829417	1
0	1529	48.694703496084	0
0	1531	48.825886251727	1
0	1533	48.925052918394	0
0	1535	49.059487537175	1
0	1537	49.113420960015	2
0	1540	49.212587626682	0
0	1542	49.388153826322	1
0	1544	49.487320492989	0
0	1546	49.654928415802	1
0	1548	49.754095082469	0
0	1550	49.785283724279	1
0	1552	49.78610546261	2
0	1555	49.885272129277	0
0	1557	50.284040154284	1
0	1559	50.383206820951	0
0	1561	50.485583198385	1
0	1563	50.50134827555	2
0	1566	50.600514942217	0
0	1568	50.60426135273	1
0	1570	50.703428019397	0
0	1572	50.764531900689	1
0	1574	50.782989008411	2
0	1576	50.820553375297	2
0	1580	50.919720041964	0
0	1582	50.933748093595	1
0	1584	51.032914760262	0
0	1586	51.205277716337	1
0	1588	51.304444383004	0
0	1590	51.685123326122	1
0	1592	51.784289992789	0
0	1594	51.830362049875	1
0	1596	51.929528716542	0
0	1598	51.939359804117	1
0	1600	52.038526470784	0
0	1602	52.115837376044	1
0	1604	52.130750722632	2
0	1606	52.148790891317	2
0	1608	52.169867869477	2
0	1610	52.207353290521	2
0	1615	52.257335748209	2
0	1618	52.298060206938	2
0	1620	52.305026638127	2
0	1625	52.404193304794	0
0	1627	52.644341886928	1
0	1629	52.678054025831	2
0	1632	52.777220692498	0
0	1634	52.827641825647	1
0	1636	52.866349053911	2
0	1638	52.910273527764	2
0	1642	53.009440194431	0
0	1644	53.048482469645	1
0	1646	53.147649136312	0
0	1648	53.273288140345	1
0	1650	53.340916207359	2
0	1652	53.344294421586	2
0	1654	53.35089189071	2
0	1659	53.450058557377	0
0	1661	53.513205082926	1
0	1663	53.585203315373	2
0	1665	53.607750742848	2
0	1669	53.706917409515	0
0	1671	54.049941616934	1
0	1673	54.149108283601	0
0	1675	54.309563109405	1
0	1677	54.408729776072	0
0	1679	54.470650230676	1
0	1681	54.506211001821	2
0	1683	54.516289953279	2
0	1687	54.615456619946	0
0	1689	54.878374275475	1
0	1691	54.922082224005	2
0	1693	54.964640448679	2
0	1697	55.063807115346	0
0	1699	55.093458669409	1
0	1701	55.126272827037	2
0	1704	55.225439493704	0
0	1706	55.348535991979	1
0	1708	55.389778451651	2
0	1710	55.412084493807	2
0	1712	55.431935367724	2
0	1716	55.489475372267	2
0	1718	55.510922493071	2
0	1722	55.58551450284	2
0	1726	55.617654900336	2
0	1728	55.632887774607	2
0	1732	55.732054441274	0
0	1734	55.890656189747	1
0	1736	55.926871000552	2
0	1738	55.95018035513	2
0	1742	56.049347021797	0
0	1744	56.147291410569	1
0	1746	56.196346553698	2
0	1748	56.239712545939	2
0	1752	56.297015153149	2
0	1755	56.396181819816	0
0	1757	56.517178099871	1
0	1759	56.535113372948	2
0	1761	56.563983408964	2
0	1763	56.591171937388	2
0	1768	56.687385640157	2
0	1771	56.786552306824	0
0	1773	56.794034250148	1
0	1775	56.842381244984	2
0	1778	56.941547911651	0
0	1780	57.087714935605	1
0	1782	57.186881602272	0
0	1784	57.349181105924	1
0	1786	57.393760170394	2
0	1789	57.492926837061	0
0	1791	57.59571826978	1
0	1793	57.604639537089	2
0	1795	57.617828456855	2
0	1799	57.716995123522	0
0	1801	57.722002009772	1
0	1803	57.792715864861	2
0	1805	57.796776847333	2
0	1807	57.809075670553	2
0	1809	57.816800016714	2
0	1812	57.849066660695	2
0	1818	57.924804120224	2
0	1821	57.982036341438	2
0	1823	58.023006138344	2
0	1827	58.085011943438	2
0	1830	58.171728592903	2
0	1833	58.233448647124	2
0	1836	58.332615313791	0
0	1838	58.426794816361	1
0	1840	58.525961483028	0
0	1842	58.613446843474	1
0	1844	58.673401555821	2
0	1847	58.772568222488	0
0	1849	58.904703044072	1
0	1851	58.990365994595	2
0	1854	59.057910760219	2
0	1857	59.149347438521	2
0	1860	59.170337502487	2
0	1863	59.269504169154	0
0	1865	59.405203403722	1
0	1867	59.468775962693	2
0	1869	59.487871483239	2
0	1873	59.587038149906	0
0	1875	59.673182574411	1
0	1877	59.772349241078	0
0	1879	59.799334416148	1
0	1881	59.898501082815	0
0	1883	59.950888699257	1
0	1885	60.050055365924	0
0	1887	60.062268067897	1
0	1889	60.11457048638	2
0	1892	60.213737153047	0
0	1894	60.335244705386	1
0	1896	60.359887899677	2
0	1898	60.363727375697	2
0	1900	60.368685596036	2
0	1902	60.397631638664	2
0	1904	60.404051274696	2
0	1911	60.503217941363	0
0	1913	60.520616682884	1
0	1915	60.619783349551	0
0	1917	60.630310860141	1
0	1919	60.674664942594	2
0	1922	60.773831609261	0
0	1924	60.984468687517	1
0	1926	60.993367813399	2
0	1929	61.092534480066	0
0	1931	61.093296227267	1
0	1933	61.096977573635	2
0	1935	61.161828000477	2
0	1937	61.189129937595	2
0	1942	61.288296604262	0
0	1944	61.317821026707	1
0	1946	61.416987693374	0
0	1948	61.456413672587	1
0	1950	61.45731204352	2
0	1953	61.556478710187	0
0	1955	61.670741718047	1
0	1957	61.699076371166	2
0	1959	61.701110801087	2
0	1962	61.785722354436	2
0	1966	61.802671777907	2
0	1969	61.901838444574	0
0	1971	61.924466033318	1
0	1973	62.023632699985	0
0	1975	62.105769599733	1
0	1977	62.186996528084	2
0	1980	62.286163194751	0
0	1982	62.290627961383	1
0	1984	62.38979462805	0
0	1986	62.725579252084	1
0	1988	62.739137916376	2
0	1990	62.756873436431	2
0	1993	62.832857494951	2
0	1997	62.897588493321	2
0	1999	62.928873682472	2
0	2003	63.028040349139	0
0	2005	63.039840155336	1
0	2007	63.054312497496	2
0	2009	63.072880175105	2
0	2011	63.130674247726	2
0	2016	63.229840914393	0
0	2018	63.28901743767	1
0	2020	63.306070736724	2
0	2022	63.325352357449	2
0	2026	63.41459944765	2
0	2029	63.513766114317	0
0	2031	63.620825579706	1
0	2033	63.668207171829	2
0	2035	63.718919864729	2
0	2039	63.818086531396	0
0	2041	63.890995290337	1
0	2043	63.910605540335	2
0	2046	64.009772207002	0
0	2048	64.108653112439	1
0	2050	64.124538495651	2
0	2053	64.223705162318	0
0	2055	64.42574173169	1
0	2057	64.475274291864	2
0	2059	64.499685262787	2
0	2063	64.598851929454	0
0	2065	64.982229642082	1
0	2067	65.081396308749	0
0	2069	65.084775218105	1
0	2071	65.111847239201	2
0	2074	65.211013905868	0
0	2076	65.511222127267	1
0	2078	65.610388793934	0
0	2080	65.893787241386	1
0	2082	65.929833497632	2
0	2085	66.029000164299	0
0	2087	66.095718590646	1
0	2089	66.124650963059	2
0	2091	66.144073995305	2
0	2095	66.229964127182	2
0	2098	66.329130793849	0
0	2100	66.448161766066	1
0	2102	66.547328432733	0
0	2104	66.601214544725	1
0	2106	66.654610172016	2
0	2108	66.669850516597	2
0	2110	66.692247868159	2
0	2115	66.780298636537	2
0	2118	66.879465303204	0
0	2120	67.094521544485	1
0	2122	67.193688211152	0
0	2124	67.231489526451	1
0	2126	67.289034863971	2
0	2129	67.388201530638	0
0	2131	67.474140170048	1
0	2133	67.520589170126	2
0	2136	67.619755836793	0
0	2138	67.74232444096	1
0	2140	67.841491107627	0
0	2142	67.994599388532	1
0	2144	68.057480858425	2
0	2147	68.10107157472	2
0	2149	68.132706214393	2
0	2153	68.23187288106	0
0	2155	68.551835554719	1
0	2157	68.651002221386	0
0	2159	68.708073384632	1
0	2161	68.807240051299	0
0	2163	68.954684180008	1
0	2165	69.053850846675	0
0	2167	69.071164988284	1
0	2169	69.170331654951	0
0	2171	69.280021521966	1
0	2173	69.379188188633	0
0	2175	69.67447319864	1
0	2177	69.773639865307	0
0	2179	69.878655335602	1
0	2181	69.957616644781	2
0	2184	69.978045065851	2
0	2186	70.014894756075	2
0	2188	70.036855079847	2
0	2193	70.11494029227	2
0	2196	70.194207998719	2
0	2199	70.293374665386	0
0	2201	70.342307918809	1
0	2203	70.441474585476	0
0	2205	70.642423500253	1
0	2207	70.674497668668	2
0	2210	70.773664335335	0
0	2212	70.986726742097	1
0	2214	71.030294079093	2
0	2217	71.099247917243	2
0	2220	71.19841122124	2
0	2223	71.211873685549	2
0	2225	71.25294456915	2
0	2229	71.352111235817	0
0	2231	71.549408596492	1
0	2233	71.584642947223	2
0	2236	71.681054809874	2
0	2239	71.720453660054	2
0	2242	71.819620326721	0
0	2244	71.836336242347	1
0	2246	71.935502909014	0
0	2248	71.93599600743	1
0	2250	72.010698578951	2
0	2253	72.057631348993	2
0	2256	72.15679801566	0
0	2258	72.206519284847	1
0	2260	72.305685951514	0
0	2262	72.463093017579	1
0	2264	72.485836882503	2
0	2266	72.554618594078	2
0	2270	72.653785260745	0
0	2272	72.74582820336	1
0	2274	72.844994870027	0
0	2276	72.857470895318	1
0	2278	72.956637561985	0
0	2280	73.339162078825	1
0	2282	73.438328745492	0
0	2284	73.634403789237	1
0	2286	73.684553095898	2
0	2288	73.693026050831	2
0	2291	73.755186217537	2
0	2295	73.854352884204	0
0	2297	73.885401564555	1
0	2299	73.910481390091	2
0	2302	74.009648056758	0
0	2304	74.112864911386	1
0	2306	74.212031578053	0
0	2308	74.358606019593	1
0	2310	74.45777268626	0
0	2312	74.536715950188	1
0	2314	74.542338767229	2
0	2316	74.593833661535	2
0	2320	74.693000328202	0
0	2322	74.702709513023	1
0	2324	74.80187617969	0
0	2326	74.920438504256	1
0	2328	74.924101003687	2
0	2331	75.021109416445	2
0	2334	75.109310646613	2
0	2337	75.168218577976	2
0	2339	75.202248563003	2
0	2343	75.30141522967	0
0	2345	75.321318529967	1
0	2347	75.394459023056	2
0	2350	75.423757293333	2
0	2353	75.52292396	0
0	2355	75.576333159209	1
0	2357	75.578821698027	2
0	2359	75.6349193422	2
0	2363	75.707993886031	2
0	2365	75.721958628994	2
0	2369	75.821125295661	0
0	2371	75.871416556334	1
0	2373	75.970583223001	0
0	2375	76.065840133223	1
0	2377	76.108997580527	2
0	2379	76.143694353827	2
0	2383	76.242861020494	0
0	2385	76.255730263499	1
0	2387	76.354896930166	0
0	2389	76.828911774547	1
0	2391	76.928078441214	0
0	2393	77.026804955488	1
0	2395	77.121593627251	2
0	2398	77.142831385227	2
0	2400	77.193457010422	2
0	2404	77.254380729963	2
0	2407	77.35354739663	0
0	2409	77.412274079991	1
0	2411	77.511440746658	0
0	2413	77.575991781086	1
0	2415	77.675158447753	0
0	2417	77.866688646198	1
0	2419	77.91700036203	2
0	2421	77.933997963476	2
0	2423	77.949182321056	2
0	2426	78.004670468526	2
0	2431	78.054250892733	2
0	2434	78.1534175594	0
0	2436	78.168534348678	1
0	2438	78.267701015345	0
0	2440	78.335605644963	1
0	2442	78.43477231163	0
0	2444	78.609805341076	1
0	2446	78.708972007743	0
0	2448	78.861053637562	1
0	2450	78.956864716104	2
0	2453	79.026434376488	2
0	2455	79.049223987316	2
0	2458	79.067391685295	2
0	2460	79.111252647954	2
0	2465	79.18051194484	2
0	2468	79.236026843649	2
0	2471	79.321979619604	2
0	2474	79.421146286271	0
0	2476	79.539922614378	1
0	2478	79.639089281045	0
0	2480	79.667228853234	1
0	2482	79.766395519901	0
0	2484	79.865586313461	1
0	2486	79.921600694484	2
0	2488	79.924306193428	2
0	2491	79.967685948662	2
0	2493	80.012668545692	2
0	2497	80.048762093114	2
0	2500	80.079127529877	2
0	2504	80.178294196544	0
0	2506	80.395484281291	1
0	2508	80.460113803706	2
0	2511	80.559280470373	0
0	2513	80.606492007299	1
0	2515	80.705658673966	0
0	2517	80.805272991759	1
0	2519	80.811282464142	2
0	2521	80.86517634932	2
0	2525	80.964343015987	0
0	2527	81.024512883273	1
0	2529	81.072381542451	2
0	2531	81.099083724469	2
0	2534	81.166945072264	2
0	2538	81.266111738931	0
0	2540	81.352862764015	1
0	2542	81.452029430682	0
0	2544	81.616064313546	1
0	2546	81.621345816565	2
0	2548	81.660589917098	2
0	2552	81.759756583765	0
0	2554	81.924269373552	1
0	2556	81.943494859027	2
0	2558	81.997720428611	2
0	2562	82.050932177279	2