version 3
run RBAAloha-4-20250224-10:09:48-12720
attr configname RBAAloha
attr datetime 20250224-10:09:48
attr datetimef 20250224-100948
attr experiment RBAAloha
attr inifile omnetpp.ini
attr iterationvars $0=1000s
attr iterationvarsd 1000s
attr iterationvarsf 1000s-
attr measurement $0=1000s
attr network Aloha
attr processid 12720
attr repetition 1
attr replication #1
attr resultdir results
attr runnumber 4
attr seedset 4
config description "pure Aloha, overloaded"
config Aloha.host[*].iaTime exponential(2s)
config repeat 3
config sim-time-limit 1000s
config network Aloha
config Aloha.numHosts 20
config Aloha.slotTime 0s
config Aloha.txRate 9.6kbps
config Aloha.host[*].pkLenBits 952b
config **.x "uniform(0m, 1000m)"
config **.y "uniform(0m, 1000m)"
config **.animationHoldTimeOnCollision 0s
config **.idleAnimationSpeed 1
config **.transmissionEdgeAnimationSpeed 1e-6
config **.midTransmissionAnimationSpeed 1e-1

vector 0 Aloha.server serverChannelState:vector ETV
attr enum IDLE=0,TRANSMISSION=1,COLLISION=2
attr recordingmode vector
attr source channelState
attr title "Channel state"
vector 1 Aloha.server channelUtilization:vector ETV
attr interpolationmode linear
attr recordingmode vector
attr source timeavg(receive)
attr title "channel utilization"
vector 2 Aloha.host[0] radioState:vector ETV
attr enum IDLE=0,TRANSMIT=1
attr recordingmode vector
attr source state
attr title "Radio state"
vector 3 Aloha.host[1] radioState:vector ETV
attr enum IDLE=0,TRANSMIT=1
attr recordingmode vector
attr source state
attr title "Radio state"
vector 4 Aloha.host[2] radioState:vector ETV
attr enum IDLE=0,TRANSMIT=1
attr recordingmode vector
attr source state
attr title "Radio state"
vector 5 Aloha.host[3] radioState:vector ETV
attr enum IDLE=0,TRANSMIT=1
attr recordingmode vector
attr source state
attr title "Radio state"
vector 6 Aloha.host[4] radioState:vector ETV
attr enum IDLE=0,TRANSMIT=1
attr recordingmode vector
attr source state
attr title "Radio state"
vector 7 Aloha.host[5] radioState:vector ETV
attr enum IDLE=0,TRANSMIT=1
attr recordingmode vector
attr source state
attr title "Radio state"
vector 8 Aloha.host[6] radioState:vector ETV
attr enum IDLE=0,TRANSMIT=1
attr recordingmode vector
attr source state
attr title "Radio state"
vector 9 Aloha.host[7] radioState:vector ETV
attr enum IDLE=0,TRANSMIT=1
attr recordingmode vector
attr source state
attr title "Radio state"
vector 10 Aloha.host[8] radioState:vector ETV
attr enum IDLE=0,TRANSMIT=1
attr recordingmode vector
attr source state
attr title "Radio state"
vector 11 Aloha.host[9] radioState:vector ETV
attr enum IDLE=0,TRANSMIT=1
attr recordingmode vector
attr source state
attr title "Radio state"
vector 12 Aloha.host[10] radioState:vector ETV
attr enum IDLE=0,TRANSMIT=1
attr recordingmode vector
attr source state
attr title "Radio state"
vector 13 Aloha.host[11] radioState:vector ETV
attr enum IDLE=0,TRANSMIT=1
attr recordingmode vector
attr source state
attr title "Radio state"
vector 14 Aloha.host[12] radioState:vector ETV
attr enum IDLE=0,TRANSMIT=1
attr recordingmode vector
attr source state
attr title "Radio state"
vector 15 Aloha.host[13] radioState:vector ETV
attr enum IDLE=0,TRANSMIT=1
attr recordingmode vector
attr source state
attr title "Radio state"
vector 16 Aloha.host[14] radioState:vector ETV
attr enum IDLE=0,TRANSMIT=1
attr recordingmode vector
attr source state
attr title "Radio state"
vector 17 Aloha.host[15] radioState:vector ETV
attr enum IDLE=0,TRANSMIT=1
attr recordingmode vector
attr source state
attr title "Radio state"
vector 18 Aloha.host[16] radioState:vector ETV
attr enum IDLE=0,TRANSMIT=1
attr recordingmode vector
attr source state
attr title "Radio state"
vector 19 Aloha.host[17] radioState:vector ETV
attr enum IDLE=0,TRANSMIT=1
attr recordingmode vector
attr source state
attr title "Radio state"
vector 20 Aloha.host[18] radioState:vector ETV
attr enum IDLE=0,TRANSMIT=1
attr recordingmode vector
attr source state
attr title "Radio state"
vector 21 Aloha.host[19] radioState:vector ETV
attr enum IDLE=0,TRANSMIT=1
attr recordingmode vector
attr source state
attr title "Radio state"
0	0	0	0
0	2	0.081186613587	1
0	4	0.135938857336	2
0	6	0.155813909469	2
0	10	0.254980576136	0
0	12	0.36777980203	1
0	14	0.380304532681	2
0	16	0.386834549778	2
0	20	0.486001216445	0
0	22	0.558827563923	1
0	24	0.65799423059	0
0	26	0.708483141357	1
0	28	0.807649808024	0
0	30	1.002475489807	1
0	32	1.050000234301	2
0	34	1.071785621618	2
0	38	1.164461371215	2
0	41	1.182444489277	2
0	44	1.281611155944	0
0	46	1.327168072058	1
0	48	1.426334738725	0
0	50	1.501166586497	1
0	52	1.600333253164	0
0	54	1.623602551833	1
0	56	1.662288234967	2
0	59	1.72999862731	2
0	62	1.829165293977	0
0	64	1.836301341154	1
0	66	1.935468007821	0
0	68	2.186269311723	1
0	70	2.274377950492	2
0	73	2.373544617159	0
0	75	2.626975531425	1
0	77	2.643864219585	2
0	79	2.65732569111	2
0	81	2.677448861146	2
0	86	2.770351888178	2
0	89	2.869518554845	0
0	91	2.946812536621	1
0	93	3.045979203288	0
0	95	3.055236067856	1
0	97	3.086421526168	2
0	100	3.171016306544	2
0	103	3.230855765228	2
0	106	3.311681126832	2
0	109	3.410847793499	0
0	111	3.709761251536	1
0	113	3.808927918203	0
0	115	3.841839161915	1
0	117	3.85998582175	2
0	120	3.959152488417	0
0	122	3.987829768765	1
0	124	4.018084969734	2
0	126	4.021125090146	2
0	128	4.024157055072	2
0	130	4.08516566127	2
0	133	4.114670275937	2
0	139	4.213836942604	0
0	141	4.217423675082	1
0	143	4.288392496916	2
0	145	4.299570625802	2
0	148	4.32943074703	2
0	151	4.394128620782	2
0	155	4.493295287449	0
0	157	4.531468250224	1
0	159	4.582040551353	2
0	161	4.590270422977	2
0	164	4.670134627374	2
0	168	4.763060836819	2
0	171	4.838658182356	2
0	173	4.853614045269	2
0	175	4.855335309563	2
0	180	4.95450197623	0
0	182	5.092312271218	1
0	184	5.115348551621	2
0	186	5.184625943959	2
0	190	5.283792610626	0
0	192	5.577350167317	1
0	194	5.651000465608	2
0	196	5.659943678916	2
0	199	5.713142213177	2
0	201	5.727822755841	2
0	205	5.80098535557	2
0	209	5.900152022237	0
0	211	5.950972369895	1
0	213	6.008125167787	2
0	216	6.078541376409	2
0	218	6.083422030956	2
0	222	6.182588697623	0
0	224	6.362161556089	1
0	226	6.417335656454	2
0	229	6.516502323121	0
0	231	6.640382451166	1
0	233	6.704616217611	2
0	236	6.803782884278	0
0	238	6.850109192547	1
0	240	6.949275859214	0
0	242	6.994693767078	1
0	244	7.083404690131	2
0	247	7.182571356798	0
0	249	7.270783352619	1
0	251	7.34928944467	2
0	254	7.448456111337	0
0	256	7.539806592238	1
0	258	7.638973258905	0
0	260	7.729748114117	1
0	262	7.805204568782	2
0	265	7.904371235449	0
0	267	8.028993239331	1
0	269	8.072270378833	2
0	272	8.1714370455	0
0	274	8.202250561593	1
0	276	8.30141722826	0
0	278	8.614920307732	1
0	280	8.618504451743	2
0	282	8.64048237037	2
0	286	8.737606757864	2
0	289	8.836773424531	0
0	291	8.929237721718	1
0	293	8.969590232551	2
0	296	9.068756899218	0
0	298	9.105648653166	1
0	300	9.140713076882	2
0	302	9.162966936691	2
0	304	9.163632852535	2
0	306	9.188911002802	2
0	312	9.288077669469	0
0	314	9.393855785942	1
0	316	9.4859711267	2
0	319	9.538789145201	2
0	322	9.595435665261	2
0	325	9.694602331928	0
0	327	9.873663871601	1
0	329	9.916981744978	2
0	331	9.928715614765	2
0	335	10.01654214473	2
0	338	10.115651357294	2
0	341	10.160203037314	2
0	344	10.259369703981	0
0	346	10.348367765044	1
0	348	10.447534431711	0
0	350	10.45093801763	1
0	352	10.463270888392	2
0	354	10.489151997433	2
0	356	10.525841675873	2
0	358	10.542341490049	2
0	361	10.551797913457	2
0	365	10.590127892177	2
0	370	10.689294558844	0
0	372	10.758197862826	1
0	374	10.815546996739	2
0	377	10.901086465071	2
0	380	10.948305154168	2
0	383	11.047471820835	0
0	385	11.055156440828	1
0	387	11.154323107495	0
0	389	11.194831894451	1
0	391	11.293998561118	0
0	393	11.498632613429	1
0	395	11.591718880763	2
0	398	11.69088554743	0
0	400	11.99588990737	1
0	402	12.02713126835	2
0	405	12.126297935017	0
0	407	12.283907719555	1
0	409	12.383074386222	0
0	411	12.448342366974	1
0	413	12.475166258853	2
0	416	12.563542771831	2
0	419	12.614553381383	2
0	421	12.633828624882	2
0	424	12.672395875348	2
0	428	12.771562542015	0
0	430	13.103738422694	1
0	432	13.10430990029	2
0	435	13.203476566957	0
0	437	13.256489570231	1
0	439	13.340324345204	2
0	442	13.439491011871	0
0	444	13.454362752498	1
0	446	13.553529419165	0
0	448	13.595438898294	1
0	450	13.621943051512	2
0	453	13.696550385055	2
0	456	13.795717051722	0
0	458	13.889677358739	1
0	460	13.947974219999	2
0	463	14.028837212542	2
0	466	14.128003879209	0
0	468	14.208281104655	1
0	470	14.212627519834	2
0	472	14.237696892763	2
0	476	14.33686355943	0
0	478	14.353553660008	1
0	480	14.452720326675	0
0	482	14.551261509179	1
0	484	14.575580366395	2
0	486	14.601957038322	2
0	488	14.635329067388	2
0	493	14.732707937011	2
0	496	14.800485826154	2
0	498	14.831803176117	2
0	501	14.837736376405	2
0	505	14.936903043072	0
0	507	14.974726584288	1
0	509	15.073893250955	0
0	511	15.110600261114	1
0	513	15.130579524546	2
0	515	15.136965267181	2
0	519	15.236131933848	0
0	521	15.372290223602	1
0	523	15.375457660351	2
0	526	15.474624327018	0
0	528	15.498723949573	1
0	530	15.538846553484	2
0	533	15.638013220151	0
0	535	15.650653702913	1
0	537	15.74982036958	0
0	539	15.757677577604	1
0	541	15.856844244271	0
0	543	15.862998510422	1
0	545	15.962165177089	0
0	547	15.978213685271	1
0	549	16.077380351938	0
0	551	16.491752348542	1
0	553	16.520952427221	2
0	556	16.620119093888	0
0	558	16.626660992052	1
0	560	16.679183787196	2
0	563	16.778350453863	0
0	565	16.853692666738	1
0	567	16.884930851844	2
0	569	16.90530839541	2
0	571	16.937420365767	2
0	576	17.036587032434	0
0	578	17.136315195222	1
0	580	17.203183384785	2
0	583	17.302350051452	0
0	585	17.464464054241	1
0	587	17.506801096383	2
0	590	17.60596776305	0
0	592	17.820150856937	1
0	594	17.850770550589	2
0	597	17.949937217256	0
0	599	17.969961983219	1
0	601	17.987755660882	2
0	603	18.034162617114	2
0	607	18.087202951532	2
0	609	18.108250384753	2
0	613	18.20741705142	0
0	615	18.224103870198	1
0	617	18.228379872446	2
0	620	18.327546539113	0
0	622	18.503711840266	1
0	624	18.602878506933	0
0	626	18.85000829313	1
0	628	18.949174959797	0
0	630	18.972287179005	1
0	632	19.024291190044	2
0	635	19.118746339654	2
0	638	19.217913006321	0
0	640	19.299746840974	1
0	642	19.299770828553	2
0	644	19.328950581818	2
0	646	19.339730797034	2
0	651	19.431137877773	2
0	654	19.53030454444	0
0	656	19.628666414318	1
0	658	19.727833080985	0
0	660	19.751311220561	1
0	662	19.781976387897	2
0	664	19.796762606064	2
0	666	19.82040517584	2
0	671	19.919571842507	0
0	673	19.929647230165	1
0	675	20.028813896832	0
0	677	20.067591720568	1
0	679	20.147969828342	2
0	682	20.247136495009	0
0	684	20.607408936206	1
0	686	20.706575602873	0
0	688	21.006312163511	1
0	690	21.065706292777	2
0	693	21.118549081197	2
0	696	21.180063929438	2
0	699	21.279230596105	0
0	701	21.450588711893	1
0	703	21.507179276761	2
0	706	21.570122632804	2
0	709	21.64909597783	2
0	712	21.748262644497	0
0	714	21.760950686366	1
0	716	21.801077063707	2
0	719	21.871006562003	2
0	722	21.97017322867	0
0	724	22.024020588816	1
0	726	22.109471454317	2
0	729	22.125868275236	2
0	732	22.225034941903	0
0	734	22.225682124837	1
0	736	22.324848791504	0
0	738	22.363333459047	1
0	740	22.462500125714	0
0	742	22.520531555898	1
0	744	22.619698222565	0
0	746	22.826952398984	1
0	748	22.904493130921	2
0	751	22.931000283344	2
0	754	23.013565011669	2
0	757	23.05993831566	2
0	760	23.159104982327	0
0	762	23.213829118042	1
0	764	23.312995784709	0
0	766	23.509719701645	1
0	768	23.608886368312	0
0	770	23.664866389198	1
0	772	23.673728458126	2
0	774	23.682647604905	2
0	776	23.710988975321	2
0	781	23.810155641988	0
0	783	23.904529125478	1
0	785	24.003695792145	0
0	787	24.120860043945	1
0	789	24.209412167867	2
0	791	24.212234497236	2
0	794	24.303439684307	2
0	798	24.402606350974	0
0	800	24.545153781683	1
0	802	24.563129166753	2
0	804	24.568892013567	2
0	807	24.658466194201	2
0	811	24.757632860868	0
0	813	24.821070101926	1
0	815	24.920236768593	0
0	817	25.209716384786	1
0	819	25.273907552574	2
0	822	25.373074219241	0
0	824	25.378490833739	1
0	826	25.477657500406	0
0	828	25.518036243604	1
0	830	25.617202910271	0
0	832	25.968342493359	1
0	834	26.067509160026	0
0	836	26.069008741164	1
0	838	26.132533272596	2
0	840	26.158049764062	2
0	844	26.257216430729	0
0	846	26.315989821074	1
0	848	26.322214061469	2
0	850	26.333953423583	2
0	852	26.35410157391	2
0	857	26.453268240577	0
0	859	26.551731420754	1
0	861	26.650898087421	0
0	863	26.746603291647	1
0	865	26.845769958314	0
0	867	26.92394884977	1
0	869	27.023115516437	0
0	871	27.189794137977	1
0	873	27.257496535948	2
0	876	27.329514722937	2
0	879	27.428681389604	0
0	881	27.676577891123	1
0	883	27.703067576662	2
0	885	27.757768782496	2
0	889	27.850516774948	2
0	892	27.949683441615	0
0	894	28.067565661237	1
0	896	28.11255567819	2
0	899	28.211722344857	0
0	901	28.341154692091	1
0	903	28.349179575677	2
0	905	28.361318944101	2
0	909	28.460485610768	0
0	911	28.464880544267	1
0	913	28.473817394382	2
0	916	28.572984061049	0
0	918	28.745636304055	1
0	920	28.754689974686	2
0	922	28.780490679386	2
0	924	28.784191327948	2
0	929	28.883357994615	0
0	931	28.990635153006	1
0	933	29.089801819673	0
0	935	29.094885675038	1
0	937	29.194052341705	0
0	939	29.206105561389	1
0	941	29.271655767786	2
0	944	29.370822434453	0
0	946	29.389345970311	1
0	948	29.488512636978	0
0	950	29.495895789927	1
0	952	29.511795009154	2
0	954	29.512288894857	2
0	956	29.532240405273	2
0	958	29.537950830323	2
0	964	29.63711749699	0
0	966	29.794294144398	1
0	968	29.893460811065	0
0	970	30.062852398545	1
0	972	30.162019065212	0
0	974	30.389420305682	1
0	976	30.488586972349	0
0	978	30.676223235477	1
0	980	30.775389902144	0
0	982	30.796638585183	1
0	984	30.808631871417	2
0	987	30.907798538084	0
0	989	30.936319610781	1
0	991	31.035486277448	0
0	993	31.117254222203	1
0	995	31.21642088887	0
0	997	31.225284751294	1
0	999	31.324451417961	0
0	1001	31.473231491947	1
0	1003	31.536466761508	2
0	1006	31.635633428175	0
0	1008	31.649892006864	1
0	1010	31.659708121556	2
0	1012	31.711803676945	2
0	1016	31.789346458495	2
0	1018	31.795964698208	2
0	1022	31.895131364875	0
0	1024	31.919332089689	1
0	1026	32.018498756356	0
0	1028	32.027912686569	1
0	1030	32.092741337582	2
0	1033	32.132868705919	2
0	1035	32.140650074854	2
0	1037	32.175484220155	2
0	1040	32.229226857585	2
0	1044	32.252360490143	2
0	1048	32.35152715681	0
0	1050	32.50740378844	1
0	1052	32.606570455107	0
0	1054	32.652894588273	1
0	1056	32.66573141143	2
0	1058	32.745019685265	2
0	1062	32.844186351932	0
0	1064	32.936534316037	1
0	1066	32.959594775404	2
0	1069	33.058761442071	0
0	1071	33.276851467623	1
0	1073	33.37601813429	0
0	1075	33.48939960467	1
0	1077	33.588566271337	0
0	1079	33.615188286286	1
0	1081	33.714354952953	0
0	1083	33.783252587011	1
0	1085	33.784596006282	2
0	1087	33.7933184459	2
0	1091	33.892485112567	0
0	1093	33.924051753318	1
0	1095	33.943151588375	2
0	1097	34.020732201564	2
0	1101	34.052830619592	2
0	1104	34.151997286259	0
0	1106	34.308691481901	1
0	1108	34.327257621263	2
0	1111	34.42642428793	0
0	1113	34.722045636067	1
0	1115	34.817506005385	2
0	1118	34.841711140245	2
0	1121	34.928233840955	2
0	1124	35.027400507622	0
0	1126	35.142885978957	1
0	1128	35.242052645624	0
0	1130	35.351073063375	1
0	1132	35.450239730042	0
0	1134	35.467615232105	1
0	1136	35.566781898772	0
0	1138	35.771424983714	1
0	1140	35.869649690034	2
0	1143	35.881459276486	2
0	1146	35.980625943153	0
0	1148	35.986165098883	1
0	1150	36.053352035392	2
0	1153	36.152518702059	0
0	1155	36.233895503662	1
0	1157	36.333062170329	0
0	1159	36.33732965868	1
0	1161	36.366779377801	2
0	1163	36.407339204019	2
0	1166	36.4462618035	2
0	1170	36.526328946907	2
0	1173	36.573665274926	2
0	1176	36.672831941593	0
0	1178	36.726855924795	1
0	1180	36.793014777373	2
0	1183	36.857730152059	2
0	1186	36.956896818726	0
0	1188	37.021567299253	1
0	1190	37.12073396592	0
0	1192	37.178135638299	1
0	1194	37.256188943451	2
0	1197	37.355355610118	0
0	1199	37.367655750245	1
0	1201	37.466822416912	0
0	1203	37.501515435624	1
0	1205	37.600682102291	0
0	1207	37.615520343715	1
0	1209	37.618371958388	2
0	1212	37.717538625055	0
0	1214	37.751157026153	1
0	1216	37.85032369282	0
0	1218	37.891447525171	1
0	1220	37.990614191838	0
0	1222	38.04618646863	1
0	1224	38.062944838489	2
0	1226	38.068977478521	2
0	1229	38.159586662636	2
0	1233	38.219603933927	2
0	1235	38.252557910797	2
0	1239	38.351724577464	0
0	1241	38.611957987084	1
0	1243	38.615323209678	2
0	1246	38.714489876345	0
0	1248	38.793494068074	1
0	1250	38.821750226256	2
0	1252	38.880227938585	2
0	1256	38.979394605252	0
0	1258	39.264220853354	1
0	1260	39.363387520021	0
0	1262	39.38720758504	1
0	1264	39.48120229496	2
0	1267	39.499856103898	2
0	1270	39.599022770565	0
0	1272	39.622013612263	1
0	1274	39.644390589195	2
0	1276	39.6469597646	2
0	1278	39.691123527764	2
0	1280	39.714932798394	2
0	1285	39.788946445852	2
0	1289	39.888113112519	0
0	1291	39.910433587502	1
0	1293	39.912251864971	2
0	1296	40.011418531638	0
0	1298	40.095603796937	1
0	1300	40.194770463604	0
0	1302	40.247384879601	1
0	1304	40.292229423615	2
0	1307	40.391396090282	0
0	1309	40.450283056777	1
0	1311	40.45946358353	2
0	1314	40.558630250197	0
0	1316	40.581168488797	1
0	1318	40.608348623179	2
0	1321	40.707515289846	0
0	1323	40.744608759599	1
0	1325	40.843775426266	0
0	1327	40.89227929587	1
0	1329	40.991445962537	0
0	1331	41.172080825454	1
0	1333	41.24305329577	2
0	1336	41.341730454896	2
0	1339	41.440001914442	2
0	1342	41.539168581109	0
0	1344	41.552749446843	1
0	1346	41.65191611351	0
0	1348	41.695309628355	1
0	1350	41.794476295022	0
0	1352	41.989783973117	1
0	1354	42.088950639784	0
0	1356	42.191011464163	1
0	1358	42.29017813083	0
0	1360	42.326234660518	1
0	1362	42.425401327185	0
0	1364	42.595870867732	1
0	1366	42.637397509399	2
0	1368	42.656881233207	2
0	1372	42.756047899874	0
0	1374	43.044725595477	1
0	1376	43.143892262144	0
0	1378	43.226036119512	1
0	1380	43.240178565216	2
0	1382	43.282540378797	2
0	1386	43.381707045464	0
0	1388	43.439212822898	1
0	1390	43.538379489565	0
0	1392	43.643723058537	1
0	1394	43.696165849236	2
0	1397	43.795332515903	0
0	1399	43.943293323562	1
0	1401	43.980693718128	2
0	1403	44.023640315883	2
0	1407	44.12280698255	0
0	1409	44.209080164426	1
0	1411	44.27044377308	2
0	1413	44.277321032714	2
0	1416	44.309505789823	2
0	1420	44.40867245649	0
0	1422	44.477911642173	1
0	1424	44.496364182135	2
0	1427	44.595530848802	0
0	1429	44.655379993186	1
0	1431	44.744619531794	2
0	1434	44.843786198461	0
0	1436	44.860933280082	1
0	1438	44.960099946749	0
0	1440	44.962675574821	1
0	1442	44.999576679729	2
0	1444	45.044481240739	2
0	1447	45.088693231977	2
0	1451	45.160052352866	2
0	1454	45.196948777031	2
0	1457	45.296115443698	0
0	1459	45.337263929616	1
0	1461	45.436430596283	0
0	1463	45.437816920418	1
0	1465	45.536983587085	0
0	1467	45.544287197226	1
0	1469	45.54889452938	2
0	1471	45.586134904222	2
0	1473	45.609088603447	2
0	1478	45.708255270114	0
0	1480	45.877004141455	1
0	1482	45.878178812613	2
0	1484	45.967731898693	2
0	1488	45.983463245678	2
0	1490	45.983920982371	2
0	1494	46.083087649038	0
0	1496	46.196950962964	1
0	1498	46.273523383094	2
0	1501	46.372690049761	0
0	1503	46.486222096091	1
0	1505	46.581735549433	2
0	1508	46.6809022161	0
0	1510	46.716280622818	1
0	1512	46.716722870286	2
0	1514	46.737582307651	2
0	1516	46.74974323642	2
0	1521	46.848909903087	0
0	1523	46.863829804908	1
0	1525	46.953593488316	2
0	1528	47.052760154983	0
0	1530	47.165532291011	1
0	1532	47.165587207614	2
0	1535	47.264753874281	0
0	1537	47.419957404175	1
0	1539	47.488458773214	2
0	1542	47.53428464132	2
0	1545	47.633451307987	0
0	1547	47.818406018731	1
0	1549	47.8429214293	2
0	1551	47.882343778087	2
0	1555	47.981510444754	0
0	1557	47.994524643931	1
0	1559	48.087257003472	2
0	1562	48.128155766176	2
0	1565	48.227322432843	0
0	1567	48.244642120724	1
0	1569	48.276468308206	2
0	1571	48.292021867933	2
0	1574	48.346969775972	2
0	1577	48.381136717805	2
0	1581	48.480303384472	0
0	1583	48.512389783696	1
0	1585	48.586313086144	2
0	1588	48.666267800913	2
0	1590	48.676707503232	2
0	1593	48.728600971009	2
0	1597	48.827767637676	0
0	1599	48.863408088821	1
0	1601	48.910443256913	2
0	1604	49.00960992358	0
0	1606	49.031729013063	1
0	1608	49.13089567973	0
0	1610	49.391159541089	1
0	1612	49.419933383948	2
0	1615	49.501502161553	2
0	1618	49.60066882822	0
0	1620	49.80947996897	1
0	1622	49.908646635637	0
0	1624	49.963027674165	1
0	1626	50.043278628127	2
0	1629	50.07018644851	2
0	1631	50.141436145026	2
0	1635	50.205120682865	2
0	1638	50.242968532043	2
0	1641	50.34213519871	0
0	1643	50.382165953344	1
0	1645	50.481332620011	0
0	1647	50.489092931439	1
0	1649	50.529629007261	2
0	1651	50.58060829229	2
0	1655	50.679774958957	0
0	1657	50.719030572356	1
0	1659	50.818197239023	0
0	1661	51.070424231078	1
0	1663	51.169590897745	0
0	1665	51.19839298234	1
0	1667	51.206987990407	2
0	1669	51.220189211742	2
0	1671	51.231818773429	2
0	1673	51.242040485722	2
0	1677	51.309783841231	2
0	1682	51.408950507898	0
0	1684	51.538835181354	1
0	1686	51.638001848021	0
0	1688	51.707408524089	1
0	1690	51.806575190756	0
0	1692	51.913099896851	1
0	1694	52.012266563518	0
0	1696	52.07463301329	1
0	1698	52.173799679957	0
0	1700	52.189584823935	1
0	1702	52.204366161053	2
0	1705	52.30353282772	0
0	1707	52.344402642021	1
0	1709	52.384338577583	2
0	1712	52.452497283473	2
0	1715	52.55166395014	0
0	1717	52.618900514902	1
0	1719	52.623961654997	2
0	1722	52.723128321664	0
0	1724	52.821933435624	1
0	1726	52.905215385016	2
0	1728	52.905268322028	2
0	1732	53.004434988695	0
0	1734	53.028641200327	1
0	1736	53.127807866994	0
0	1738	53.1868991828	1
0	1740	53.286065849467	0
0	1742	53.362630260576	1
0	1744	53.374904062227	2
0	1746	53.414729635659	2
0	1750	53.513896302326	0
0	1752	53.849966004274	1
0	1754	53.949132670941	0
0	1756	54.006121135053	1
0	1758	54.038874640889	2
0	1761	54.138041307556	0
0	1763	54.255061411261	1
0	1765	54.354228077928	0
0	1767	54.401031973168	1
0	1769	54.414093553999	2
0	1772	54.513260220666	0
0	1774	54.755063565442	1
0	1776	54.759070640255	2
0	1779	54.858237306922	0
0	1781	54.987828799585	1
0	1783	55.067179784938	2
0	1786	55.166346451605	0
0	1788	55.391728007979	1
0	1790	55.490894674646	0
0	1792	55.58338036383	1
0	1794	55.591686961483	2
0	1796	55.596542770231	2
0	1800	55.695709436898	0
0	1802	55.737105578854	1
0	1804	55.76505626601	2
0	1807	55.856630527406	2
0	1810	55.936334939183	2
0	1813	55.965388500812	2
0	1815	56.025862931449	2
0	1818	56.051184823024	2
0	1822	56.150351489691	0
0	1824	56.393100214982	1
0	1826	56.469603802952	2
0	1829	56.568770469619	0
0	1831	56.636293257445	1
0	1833	56.682767385671	2
0	1836	56.781934052338	0
0	1838	56.871919977354	1
0	1840	56.900850495648	2
0	1843	56.979430219649	2
0	1846	57.049129421277	2
0	1849	57.114853114846	2
0	1852	57.214019781513	0
0	1854	57.252255456111	1
0	1856	57.351422122778	0
0	1858	57.482932339919	1
0	1860	57.582099006586	0
0	1862	57.652242339748	1
0	1864	57.669970697269	2
0	1866	57.713232101618	2
0	1868	57.714726919828	2
0	1873	57.813893586495	0
0	1875	57.848058740517	1
0	1877	57.939735881155	2
0	1880	58.038902547822	0
0	1882	58.050494460584	1
0	1884	58.109509405988	2
0	1886	58.136627121387	2
0	1890	58.235793788054	0
0	1892	58.58514762196	1
0	1894	58.647207182742	2
0	1897	58.687027871328	2
0	1900	58.786194537995	0
0	1902	58.91235615275	1
0	1904	59.000863476487	2
0	1907	59.098944425446	2
0	1910	59.123040628639	2
0	1912	59.172218242676	2
0	1916	59.26047491752	2
0	1919	59.287822257313	2
0	1922	59.38698892398	0
0	1924	59.517141368908	1
0	1926	59.572788584915	2
0	1929	59.671955251582	0
0	1931	59.722669251891	1
0	1933	59.821835918558	0
0	1935	59.828836887037	1
0	1937	59.840508560091	2
0	1939	59.920138228463	2
0	1942	59.929482665867	2
0	1945	59.980501779402	2
0	1947	59.982952334915	2
0	1949	59.987089695917	2
0	1955	60.086256362584	0
0	1957	60.149325761466	1
0	1959	60.156225787933	2
0	1962	60.2553924546	0
0	1964	60.336854394148	1
0	1966	60.436021060815	0
0	1968	60.501218633677	1
0	1970	60.600385300344	0
0	1972	60.681033539222	1
0	1974	60.780200205889	0
0	1976	60.834744715287	1
0	1978	60.837953083099	2
0	1981	60.937119749766	0
0	1983	61.1187896398	1
0	1985	61.173316809071	2
0	1987	61.176127899145	2
0	1990	61.233024582012	2
0	1994	61.332191248679	0
0	1996	61.367764250006	1
0	1998	61.466930916673	0
0	2000	61.497793167198	1
0	2002	61.593433818962	2
0	2005	61.614281879515	2
0	2007	61.673958977895	2
0	2009	61.685907954731	2
0	2014	61.785074621398	0
0	2016	61.808742118893	1
0	2018	61.843518851057	2
0	2020	61.861825763104	2
0	2022	61.904416976985	2
0	2027	62.003583643652	0
0	2029	62.076748806869	1
0	2031	62.175915473536	0
0	2033	62.192601861713	1
0	2035	62.29176852838	0
0	2037	62.398871424282	1
0	2039	62.419757087972	2
0	2042	62.518923754639	0
0	2044	62.794845370161	1
0	2046	62.894012036828	0
0	2048	62.969286001878	1
0	2050	63.018073865659	2
0	2053	63.117240532326	0
0	2055	63.268134293257	1
0	2057	63.367300959924	0
0	2059	63.42217802348	1
0	2061	63.503533194302	2
0	2064	63.526808004393	2
0	2066	63.540572049097	2
0	2070	63.639738715764	0
0	2072	63.666656712054	1
0	2074	63.765823378721	0
0	2076	63.931412378317	1
0	2078	63.979459131517	2
0	2081	64.078625798184	0
0	2083	64.088483085712	1
0	2085	64.187649752379	0
0	2087	64.406201962777	1
0	2089	64.448780122759	2
0	2092	64.547946789426	0
0	2094	64.603745371412	1
0	2096	64.702912038079	0
0	2098	64.800117846445	1
0	2100	64.861418130836	2
0	2103	64.960584797503	0
0	2105	65.153109852088	1
0	2107	65.18103865667	2
0	2109	65.239802646802	2
0	2113	65.338969313469	0
0	2115	65.579812956183	1
0	2117	65.678638559918	2
0	2120	65.769665890318	2
0	2123	65.793369987337	2
0	2125	65.840898217718	2
0	2129	65.940064884385	0
0	2131	66.054677400177	1
0	2133	66.153844066844	0
0	2135	66.272455396332	1
0	2137	66.340145011496	2
0	2139	66.353355967376	2
0	2142	66.415592247366	2
0	2146	66.514758914033	0
0	2148	66.546161028976	1
0	2150	66.572539630501	2
0	2152	66.609946003912	2
0	2154	66.611880297631	2
0	2159	66.711046964298	0
0	2161	66.712609363254	1
0	2163	66.774877586854	2
0	2166	66.874044253521	0
0	2168	66.958512292948	1
0	2170	67.055092105367	2
0	2173	67.075991581226	2
0	2175	67.08093528409	2
0	2177	67.12884486145	2
0	2182	67.228011528117	0
0	2184	67.281077944966	1
0	2186	67.294133492891	2
0	2188	67.30237821276	2
0	2190	67.377375741313	2
0	2195	67.47654240798	0
0	2197	67.501451884613	1
0	2199	67.60061855128	0
0	2201	67.679916145892	1
0	2203	67.779082812559	0
0	2205	67.858444257678	1
0	2207	67.876178206063	2
0	2209	67.932806983936	2
0	2213	68.031973650603	0
0	2215	68.052163442707	1
0	2217	68.151330109374	0
0	2219	68.242998428674	1
0	2221	68.335716284082	2
0	2224	68.434882950749	0
0	2226	68.584994813103	1
0	2228	68.67515578354	2
0	2231	68.721307610508	2
0	2233	68.760006569914	2
0	2236	68.817729881608	2
0	2239	68.850107543086	2
0	2241	68.857316424443	2
0	2246	68.95648309111	0
0	2248	69.044973129274	1
0	2250	69.144139795941	0
0	2252	69.240697101128	1
0	2254	69.281997482497	2
0	2256	69.321993714139	2
0	2260	69.421160380806	0
0	2262	69.85012220412	1
0	2264	69.949288870787	0
0	2266	70.014871059771	1
0	2268	70.07823508502	2
0	2271	70.177401751687	0
0	2273	70.181615031483	1
0	2275	70.28078169815	0
0	2277	70.283325343603	1
0	2279	70.313602160273	2
0	2282	70.41276882694	0
0	2284	70.74714047648	1
0	2286	70.779801449516	2
0	2289	70.878968116183	0
0	2291	71.10655146028	1
0	2293	71.205718126947	0
0	2295	71.249370237409	1
0	2297	71.260513854328	2
0	2299	71.327730305695	2
0	2303	71.426896972362	0
0	2305	71.53761530173	1
0	2307	71.617738956308	2
0	2309	71.62550387676	2
0	2313	71.724670543427	0
0	2315	71.779030643061	1
0	2317	71.798635450431	2
0	2319	71.877383490447	2
0	2323	71.976550157114	0
0	2325	72.114553939929	1
0	2327	72.138847352269	2
0	2330	72.238014018936	0
0	2332	72.450198075722	1
0	2334	72.48217251139	2
0	2336	72.547465700355	2
0	2340	72.646632367022	0
0	2342	72.657640916269	1
0	2344	72.756807582936	0
0	2346	72.83233791679	1
0	2348	72.931504583457	0
0	2350	72.964158756629	1
0	2352	73.037901641579	2
0	2355	73.137068308246	0
0	2357	73.218170532167	1
0	2359	73.317337198834	0
0	2361	73.58338287563	1
0	2363	73.58905129243	2
0	2366	73.688217959097	0
0	2368	73.851677961807	1
0	2370	73.915393702722	2
0	2373	73.951758709937	2
0	2375	74.00068113541	2
0	2378	74.029916113642	2
0	2382	74.129082780309	0
0	2384	74.214369712459	1
0	2386	74.313536379126	0
0	2388	74.531603170646	1
0	2390	74.577375356245	2
0	2392	74.628406649449	2
0	2395	74.651922303191	2
0	2399	74.751088969858	0
0	2401	74.751863278249	1
0	2403	74.851029944916	0
0	2405	74.92460376504	1
0	2407	75.004301833279	2
0	2409	75.009062200364	2
0	2413	75.108228867031	0
0	2415	75.188463459999	1
0	2417	75.193391452272	2
0	2419	75.264704170307	2
0	2423	75.363870836974	0
0	2425	75.400723031442	1
0	2427	75.467865603	2
0	2429	75.468225790076	2
0	2432	75.534363662885	2
0	2436	75.633530329552	0
0	2438	75.641302536896	1
0	2440	75.726797221376	2
0	2443	75.779228047993	2
0	2446	75.87839471466	0
0	2448	75.954634861246	1
0	2450	75.965964000036	2
0	2452	75.969387780653	2
0	2454	75.977757106551	2
0	2459	76.076923773218	0
0	2461	76.190227451336	1
0	2463	76.229252357131	2
0	2465	76.246665301099	2
0	2469	76.345831967766	0
0	2471	76.527348736443	1
0	2473	76.62651540311	0
0	2475	76.847429839004	1
0	2477	76.946596505671	0
0	2479	77.174727150799	1
0	2481	77.222948708029	2
0	2483	77.252954729464	2
0	2487	77.340260763634	2
0	2490	77.439427430301	0
0	2492	77.500436513764	1
0	2494	77.599603180431	0
0	2496	77.78910504817	1
0	2498	77.821278386598	2
0	2501	77.920445053265	0
0	2503	78.022093879377	1
0	2505	78.036824065419	2
0	2508	78.135990732086	0
0	2510	78.194170864458	1
0	2512	78.216447764673	2
0	2514	78.260200617784	2
0	2518	78.359367284451	0
0	2520	78.619444501086	1
0	2522	78.634556525884	2
0	2525	78.733723192551	0
0	2527	78.748228617087	1
0	2529	78.847395283754	0
0	2531	79.008978453959	1
0	2533	79.086553718452	2
0	2536	79.132131028773	2
0	2538	79.134396515877	2
0	2541	79.191770231546	2
0	2545	79.290936898213	0
0	2547	79.331999908282	1
0	2549	79.371731004264	2
0	2552	79.470897670931	0
0	2554	79.4716976689	1
0	2556	79.487287451621	2
0	2558	79.51809528822	2
0	2562	79.617261954887	0
0	2564	79.790916968349	1