version 3
run RBAAloha-3-20250224-10:07:53-13036
attr configname RBAAloha
attr datetime 20250224-10:07:53
attr datetimef 20250224-100753
attr experiment RBAAloha
attr inifile omnetpp.ini
attr iterationvars $0=1000s
attr iterationvarsd 1000s
attr iterationvarsf 1000s-
attr measurement $0=1000s
attr network Aloha
attr processid 13036
attr repetition 0
attr replication #0
attr resultdir results
attr runnumber 3
attr seedset 3
config description "pure Aloha, overloaded"
config Aloha.host[*].iaTime exponential(2s)
config repeat 3
config sim-time-limit 1000s
config network Aloha
config Aloha.numHosts 20
config Aloha.slotTime 0s
config Aloha.txRate 9.6kbps
config Aloha.host[*].pkLenBits 952b
config **.x "uniform(0m, 1000m)"
config **.y "uniform(0m, 1000m)"
config **.animationHoldTimeOnCollision 0s
config **.idleAnimationSpeed 1
config **.transmissionEdgeAnimationSpeed 1e-6
config **.midTransmissionAnimationSpeed 1e-1

vector 0 Aloha.server serverChannelState:vector ETV
attr enum IDLE=0,TRANSMISSION=1,COLLISION=2
attr recordingmode vector
attr source channelState
attr title "Channel state"
vector 1 Aloha.server channelUtilization:vector ETV
attr interpolationmode linear
attr recordingmode vector
attr source timeavg(receive)
attr title "channel utilization"
vector 2 Aloha.host[0] radioState:vector ETV
attr enum IDLE=0,TRANSMIT=1
attr recordingmode vector
attr source state
attr title "Radio state"
vector 3 Aloha.host[1] radioState:vector ETV
attr enum IDLE=0,TRANSMIT=1
attr recordingmode vector
attr source state
attr title "Radio state"
vector 4 Aloha.host[2] radioState:vector ETV
attr enum IDLE=0,TRANSMIT=1
attr recordingmode vector
attr source state
attr title "Radio state"
vector 5 Aloha.host[3] radioState:vector ETV
attr enum IDLE=0,TRANSMIT=1
attr recordingmode vector
attr source state
attr title "Radio state"
vector 6 Aloha.host[4] radioState:vector ETV
attr enum IDLE=0,TRANSMIT=1
attr recordingmode vector
attr source state
attr title "Radio state"
vector 7 Aloha.host[5] radioState:vector ETV
attr enum IDLE=0,TRANSMIT=1
attr recordingmode vector
attr source state
attr title "Radio state"
vector 8 Aloha.host[6] radioState:vector ETV
attr enum IDLE=0,TRANSMIT=1
attr recordingmode vector
attr source state
attr title "Radio state"
vector 9 Aloha.host[7] radioState:vector ETV
attr enum IDLE=0,TRANSMIT=1
attr recordingmode vector
attr source state
attr title "Radio state"
vector 10 Aloha.host[8] radioState:vector ETV
attr enum IDLE=0,TRANSMIT=1
attr recordingmode vector
attr source state
attr title "Radio state"
vector 11 Aloha.host[9] radioState:vector ETV
attr enum IDLE=0,TRANSMIT=1
attr recordingmode vector
attr source state
attr title "Radio state"
vector 12 Aloha.host[10] radioState:vector ETV
attr enum IDLE=0,TRANSMIT=1
attr recordingmode vector
attr source state
attr title "Radio state"
vector 13 Aloha.host[11] radioState:vector ETV
attr enum IDLE=0,TRANSMIT=1
attr recordingmode vector
attr source state
attr title "Radio state"
vector 14 Aloha.host[12] radioState:vector ETV
attr enum IDLE=0,TRANSMIT=1
attr recordingmode vector
attr source state
attr title "Radio state"
vector 15 Aloha.host[13] radioState:vector ETV
attr enum IDLE=0,TRANSMIT=1
attr recordingmode vector
attr source state
attr title "Radio state"
vector 16 Aloha.host[14] radioState:vector ETV
attr enum IDLE=0,TRANSMIT=1
attr recordingmode vector
attr source state
attr title "Radio state"
vector 17 Aloha.host[15] radioState:vector ETV
attr enum IDLE=0,TRANSMIT=1
attr recordingmode vector
attr source state
attr title "Radio state"
vector 18 Aloha.host[16] radioState:vector ETV
attr enum IDLE=0,TRANSMIT=1
attr recordingmode vector
attr source state
attr title "Radio state"
vector 19 Aloha.host[17] radioState:vector ETV
attr enum IDLE=0,TRANSMIT=1
attr recordingmode vector
attr source state
attr title "Radio state"
vector 20 Aloha.host[18] radioState:vector ETV
attr enum IDLE=0,TRANSMIT=1
attr recordingmode vector
attr source state
attr title "Radio state"
vector 21 Aloha.host[19] radioState:vector ETV
attr enum IDLE=0,TRANSMIT=1
attr recordingmode vector
attr source state
attr title "Radio state"
0	0	0	0
0	2	0.041661366646	1
0	4	0.140828033313	0
0	6	0.307976343746	1
0	8	0.341264049488	2
0	11	0.440430716155	0
0	13	0.501950556324	1
0	15	0.59569515591	2
0	18	0.642948539517	2
0	21	0.731615866641	2
0	24	0.830782533308	0
0	26	0.981954877783	1
0	28	1.08112154445	0
0	30	1.16125975364	1
0	32	1.194135583967	2
0	34	1.212501513606	2
0	38	1.311668180273	0
0	40	1.453926276827	1
0	42	1.553092943494	0
0	44	1.573374802519	1
0	46	1.672541469186	0
0	48	1.760405799248	1
0	50	1.766776772208	2
0	52	1.780393759205	2
0	56	1.879560425872	0
0	58	1.926338366856	1
0	60	2.025505033523	0
0	62	2.186854411352	1
0	64	2.286021078019	0
0	66	2.361213335752	1
0	68	2.362716382232	2
0	70	2.372652247624	2
0	74	2.471818914291	0
0	76	2.534694653844	1
0	78	2.535430189907	2
0	81	2.634596856574	0
0	83	2.763413516396	1
0	85	2.834872119074	2
0	88	2.934038785741	0
0	90	3.031121100002	1
0	92	3.044935356251	2
0	95	3.144102022918	0
0	97	3.261925141268	1
0	99	3.30471186707	2
0	102	3.402787211409	2
0	105	3.430898871499	2
0	108	3.503883250757	2
0	111	3.584978823384	2
0	114	3.624075856119	2
0	117	3.723242522786	0
0	119	3.737580378228	1
0	121	3.836747044895	0
0	123	3.911339696639	1
0	125	4.010506363306	0
0	127	4.116475302744	1
0	129	4.215641969411	0
0	131	4.350865668432	1
0	133	4.360064976104	2
0	135	4.367923710359	2
0	137	4.433234367954	2
0	142	4.471071668915	2
0	144	4.488145024635	2
0	148	4.587311691302	0
0	150	4.60638814312	1
0	152	4.647320067056	2
0	154	4.70202612447	2
0	157	4.743868265433	2
0	161	4.8430349321	0
0	163	4.919090540075	1
0	165	4.929028041767	2
0	167	4.947714711245	2
0	169	4.982137896482	2
0	174	5.081304563149	0
0	176	5.103101672076	1
0	178	5.202268338743	0
0	180	5.295066269156	1
0	182	5.391763591757	2
0	185	5.42819456428	2
0	187	5.481592152479	2
0	190	5.509772637614	2
0	194	5.608939304281	0
0	196	5.675437518668	1
0	198	5.774604185335	0
0	200	5.927581177914	1
0	202	5.946782922608	2
0	205	6.030549260923	2
0	208	6.12971592759	0
0	210	6.164726143548	1
0	212	6.199079003582	2
0	215	6.298245670249	0
0	217	6.535031050707	1
0	219	6.634197717374	0
0	221	6.654000110787	1
0	223	6.713446032392	2
0	226	6.812612699059	0
0	228	6.962280492482	1
0	230	7.057670623752	2
0	233	7.128818016471	2
0	236	7.160623263833	2
0	239	7.2597899305	0
0	241	7.326149660307	1
0	243	7.34374613803	2
0	246	7.442912804697	0
0	248	7.459023598057	1
0	250	7.541162256729	2
0	252	7.552322822873	2
0	255	7.567489855409	2
0	257	7.607804456384	2
0	262	7.700053043075	2
0	265	7.799219709742	0
0	267	7.842128200687	1
0	269	7.849925354375	2
0	271	7.876790763232	2
0	274	7.946024609413	2
0	278	8.04519127608	0
0	280	8.097933163066	1
0	282	8.114116960705	2
0	284	8.14095937548	2
0	286	8.162740639513	2
0	288	8.187775370131	2
0	292	8.231218647403	2
0	297	8.33038531407	0
0	299	8.335768791236	1
0	301	8.38377476387	2
0	303	8.406081791572	2
0	306	8.436496844	2
0	308	8.454144041121	2
0	313	8.553310707788	0
0	315	8.573570068888	1
0	317	8.63147157362	2
0	319	8.655907420701	2
0	323	8.755074087368	0
0	325	8.794164022394	1
0	327	8.885055457191	2
0	330	8.984222123858	0
0	332	8.997039510384	1
0	334	9.060057004517	2
0	336	9.060059706029	2
0	339	9.104283609547	2
0	343	9.18524945895	2
0	346	9.266374080911	2
0	349	9.365540747578	0
0	351	9.373107667142	1
0	353	9.450536792462	2
0	356	9.529177652325	2
0	358	9.545391728023	2
0	361	9.621999431668	2
0	365	9.700469959152	2
0	368	9.75902044592	2
0	371	9.858187112587	0
0	373	10.078328461145	1
0	375	10.102911568441	2
0	378	10.202078235108	0
0	380	10.293215939606	1
0	382	10.31148532325	2
0	385	10.410651989917	0
0	387	10.444234408436	1
0	389	10.543401075103	0
0	391	10.697375674116	1
0	393	10.770862773754	2
0	395	10.771367665769	2
0	398	10.814820618314	2
0	402	10.913987284981	0
0	404	10.930694090832	1
0	406	11.029860757499	0
0	408	11.278661960135	1
0	410	11.343762366194	2
0	413	11.442929032861	0
0	415	11.498214001323	1
0	417	11.59738066799	0
0	419	11.671059449634	1
0	421	11.740685434652	2
0	424	11.839852101319	0
0	426	11.91731197462	1
0	428	11.949006330205	2
0	431	12.048172996872	0
0	433	12.314585615607	1
0	435	12.338636800241	2
0	438	12.437803466908	0
0	440	12.458716426871	1
0	442	12.557883093538	0
0	444	12.563954083274	1
0	446	12.663120749941	0
0	448	13.264711757616	1
0	450	13.329616273086	2
0	453	13.428782939753	0
0	455	13.462122141641	1
0	457	13.561288808308	0
0	459	13.683112768068	1
0	461	13.782279434735	0
0	463	13.970563067138	1
0	465	14.069729733805	0
0	467	14.176015957024	1
0	469	14.275103652505	2
0	472	14.374270319172	0
0	474	14.451643869494	1
0	476	14.501267964019	2
0	478	14.506988688365	2
0	481	14.566300320384	2
0	484	14.602748683781	2
0	488	14.701915350448	0
0	490	14.774405524843	1
0	492	14.800835721023	2
0	494	14.803161600516	2
0	498	14.902328267183	0
0	500	15.059649548051	1
0	502	15.083152762833	2
0	504	15.134556127761	2
0	507	15.170986878428	2
0	509	15.173112901862	2
0	514	15.272279568529	0
0	516	15.35887769446	1
0	518	15.458044361127	0
0	520	15.458315325288	1
0	522	15.518843340573	2
0	524	15.549605869287	2
0	527	15.575944040258	2
0	530	15.637742262325	2
0	534	15.736908928992	0
0	536	15.935843001916	1
0	538	16.035009668583	0
0	540	16.357575749544	1
0	542	16.363065492652	2
0	545	16.462232159319	0
0	547	16.501146030625	1
0	549	16.584475750383	2
0	552	16.668720489304	2
0	555	16.751065904363	2
0	558	16.800319711689	2
0	561	16.899486378356	0
0	563	17.175407098521	1
0	565	17.187278928662	2
0	567	17.240349348387	2
0	571	17.319993030065	2
0	574	17.362552374831	2
0	577	17.427523199712	2
0	580	17.526689866379	0
0	582	17.606081161504	1
0	584	17.676230040251	2
0	586	17.677196556775	2
0	588	17.701373116792	2
0	591	17.737862820414	2
0	593	17.739112731871	2
0	597	17.795961419309	2
0	600	17.806176748592	2
0	605	17.905343415259	0
0	607	17.937741007822	1
0	609	17.9996707918	2
0	611	18.014658228966	2
0	613	18.0265779506	2
0	618	18.125744617267	0
0	620	18.364986925078	1
0	622	18.424346572208	2
0	624	18.432953470583	2
0	627	18.46626200447	2
0	631	18.553044202702	2
0	634	18.652210869369	0
0	636	18.678851031703	1
0	638	18.709562654846	2
0	640	18.773850071036	2
0	644	18.845667427369	2
0	647	18.881817546305	2
0	650	18.980984212972	0
0	652	19.167846652347	1
0	654	19.174681991962	2
0	657	19.273848658629	0
0	659	19.412439688304	1
0	661	19.50600301695	2
0	664	19.605169683617	0
0	666	19.630536355396	1
0	668	19.729703022063	0
0	670	19.752288688735	1
0	672	19.768080760343	2
0	675	19.86724742701	0
0	677	19.882908648326	1
0	679	19.902717335162	2
0	682	20.001884001829	0
0	684	20.088536701377	1
0	686	20.187703368044	0
0	688	20.219895259508	1
0	690	20.319061926175	0
0	692	20.474894302672	1
0	694	20.565287884613	2
0	697	20.627670264885	2
0	699	20.660826584353	2
0	703	20.75999325102	0
0	705	20.764599205874	1
0	707	20.815675093873	2
0	710	20.878421052535	2
0	713	20.977587719202	0
0	715	21.037194529402	1
0	717	21.058162230088	2
0	720	21.157328896755	0
0	722	21.206932126828	1
0	724	21.306098793495	0
0	726	21.363136286221	1
0	728	21.462302952888	0
0	730	21.55825229953	1
0	732	21.657418966197	0
0	734	21.791137535884	1
0	736	21.798058743952	2
0	739	21.897225410619	0
0	741	22.031711867705	1
0	743	22.130120662343	2
0	746	22.139217084867	2
0	749	22.238383751534	0
0	751	22.249858981323	1
0	753	22.293351795916	2
0	756	22.392518462583	0
0	758	22.686159894706	1
0	760	22.785326561373	0
0	762	22.916727051217	1
0	764	23.015893717884	0
0	766	23.129357046954	1
0	768	23.186075165036	2
0	771	23.270006712854	2
0	774	23.369173379521	0
0	776	23.615441845249	1
0	778	23.666015331204	2
0	781	23.765181997871	0
0	783	23.784444969839	1
0	785	23.883611636506	0
0	787	23.952754109754	1
0	789	24.02066660682	2
0	792	24.119833273487	0
0	794	24.276699584268	1
0	796	24.319211715666	2
0	799	24.418378382333	0
0	801	24.890769408147	1
0	803	24.941707952732	2
0	806	25.040874619399	0
0	808	25.05151648507	1
0	810	25.076398047922	2
0	813	25.175564714589	0
0	815	25.290342998339	1
0	817	25.361057680562	2
0	820	25.459790209466	2
0	823	25.558956876133	0
0	825	25.603170984781	1
0	827	25.63530849974	2
0	829	25.65484408141	2
0	833	25.754010748077	0
0	835	25.889186819704	1
0	837	25.903911153573	2
0	840	26.00307782024	0
0	842	26.068332930411	1
0	844	26.156612822369	2
0	847	26.202240509299	2
0	850	26.290411928311	2
0	853	26.362863357385	2
0	856	26.462030024052	0
0	858	26.477525779208	1
0	860	26.576692445875	0
0	862	26.587263726653	1
0	864	26.68643039332	0
0	866	26.970161648363	1
0	868	27.05216072251	2
0	871	27.127009220787	2
0	873	27.145105204063	2
0	877	27.24427187073	0
0	879	27.272771926634	1
0	881	27.371938593301	0
0	883	27.378822086842	1
0	885	27.417195166538	2
0	888	27.516361833205	0
0	890	27.701702472126	1
0	892	27.740285736209	2
0	895	27.839452402876	0
0	897	28.092439224897	1
0	899	28.191605891564	0
0	901	28.342741111711	1
0	903	28.436111459597	2
0	906	28.514049117804	2
0	908	28.527679218543	2
0	912	28.62684588521	0
0	914	28.931582356587	1
0	916	29.030749023254	0
0	918	29.157978697465	1
0	920	29.211965440887	2
0	923	29.311132107554	0
0	925	29.362850832841	1
0	927	29.376045303698	2
0	929	29.384494721885	2
0	933	29.483661388552	0
0	935	29.509085954074	1
0	937	29.560275971594	2
0	940	29.655329168126	2
0	943	29.753549425907	2
0	946	29.852716092574	0
0	948	29.970225003797	1
0	950	30.069391670464	0
0	952	30.200897122349	1
0	954	30.214717982615	2
0	956	30.230961457	2
0	960	30.330128123667	0
0	962	30.510463378411	1
0	964	30.609630045078	0
0	966	30.650691245142	1
0	968	30.749857911809	0
0	970	30.763198812019	1
0	972	30.862365478686	0
0	974	30.94267119866	1
0	976	30.985177775659	2
0	979	31.055723771589	2
0	982	31.136158063037	2
0	985	31.235324729704	0
0	987	31.3557841316	1
0	989	31.42319262791	2
0	992	31.522359294577	0
0	994	31.876957509343	1
0	996	31.97612417601	0
0	998	32.034856828582	1
0	1000	32.134023495249	0
0	1002	32.158957697098	1
0	1004	32.214623966733	2
0	1007	32.3137906334	0
0	1009	32.592490375893	1
0	1011	32.612152674649	2
0	1014	32.711319341316	0
0	1016	32.93465608825	1
0	1018	32.973945013257	2
0	1021	33.073111679924	0
0	1023	33.093093702701	1
0	1025	33.14480353038	2
0	1028	33.216559875412	2
0	1030	33.224183089399	2
0	1033	33.308559422694	2
0	1037	33.362007529961	2
0	1039	33.371402273335	2
0	1042	33.42585110733	2
0	1046	33.506419907008	2
0	1049	33.605586573675	0
0	1051	33.624468241829	1
0	1053	33.723634908496	0
0	1055	34.023366518922	1
0	1057	34.122533185589	0
0	1059	34.156154802103	1
0	1061	34.195882935991	2
0	1063	34.215662815157	2
0	1065	34.229190054729	2
0	1068	34.285371011888	2
0	1071	34.300008635624	2
0	1076	34.399175302291	0
0	1078	34.409548535858	1
0	1080	34.508715202525	0
0	1082	34.580592891353	1
0	1084	34.67975955802	0
0	1086	34.679810802261	1
0	1088	34.751295362861	2
0	1091	34.817854627993	2
0	1094	34.91702129466	0
0	1096	35.08188313422	1
0	1098	35.1259600073	2
0	1101	35.19028955962	2
0	1104	35.241148076046	2
0	1106	35.266967928807	2
0	1110	35.366134595474	0
0	1112	35.881929335742	1
0	1114	35.972475176018	2
0	1116	35.973084483564	2
0	1119	36.008186080944	2
0	1123	36.107352747611	0
0	1125	36.134344119255	1
0	1127	36.213108001854	2
0	1129	36.225485564098	2
0	1132	36.259566916538	2
0	1136	36.358733583205	0
0	1138	36.44088132106	1
0	1140	36.540047987727	0
0	1142	36.589877371127	1
0	1144	36.677648561332	2
0	1146	36.686785162857	2
0	1150	36.785951829524	0
0	1152	36.927977197469	1
0	1154	37.027143864136	0
0	1156	37.043671583919	1
0	1158	37.095429512796	2
0	1161	37.194596179463	0
0	1163	37.220616103925	1
0	1165	37.277775473643	2
0	1167	37.301999154561	2
0	1171	37.401165821228	0
0	1173	37.411038664804	1
0	1175	37.507748746711	2
0	1178	37.558313935629	2
0	1180	37.562197558643	2
0	1184	37.66136422531	0
0	1186	37.67338173415	1
0	1188	37.694426817514	2
0	1191	37.779145660089	2
0	1194	37.869540063564	2
0	1197	37.968706730231	0
0	1199	38.01303929016	1
0	1201	38.112205956827	0
0	1203	38.467315653358	1
0	1205	38.566482320025	0
0	1207	38.808032946401	1
0	1209	38.826592783216	2
0	1211	38.867597931073	2
0	1213	38.898330639513	2
0	1216	38.909225865375	2
0	1221	39.006122017721	2
0	1224	39.105288684388	0
0	1226	39.171038780601	1
0	1228	39.270205447268	0
0	1230	39.319608516643	1
0	1232	39.341147033456	2
0	1235	39.440313700123	0
0	1237	39.447445845249	1
0	1239	39.546612511916	0
0	1241	39.601651958714	1
0	1243	39.700818625381	0
0	1245	39.719541371316	1
0	1247	39.755470807174	2
0	1249	39.796214525748	2
0	1253	39.85877575137	2
0	1256	39.957942418037	0
0	1258	40.020777620083	1
0	1260	40.023843105655	2
0	1262	40.063345610831	2
0	1265	40.120835874681	2
0	1268	40.151028085196	2
0	1271	40.178179584859	2
0	1274	40.245677623457	2
0	1277	40.251686348397	2
0	1280	40.298767711833	2
0	1284	40.3979343785	0
0	1286	40.400842568107	1
0	1288	40.406404782778	2
0	1291	40.504350520814	2
0	1294	40.603517187481	0
0	1296	40.651197102845	1
0	1298	40.671230656341	2
0	1300	40.676670698828	2
0	1303	40.761145223505	2
0	1307	40.849493449502	2
0	1309	40.854156794596	2
0	1311	40.860288893205	2
0	1314	40.919513665757	2
0	1316	40.926026827935	2
0	1322	41.025193494602	0
0	1324	41.148059449446	1
0	1326	41.247226116113	0
0	1328	41.362127395307	1
0	1330	41.411778240611	2
0	1333	41.468471152719	2
0	1335	41.491472678022	2
0	1338	41.556098349574	2
0	1342	41.636048795378	2
0	1345	41.735215462045	0
0	1347	41.909653280755	1
0	1349	42.008819947422	0
0	1351	42.016929646599	1
0	1353	42.051848064253	2
0	1356	42.15101473092	0
0	1358	42.378109081524	1
0	1360	42.439259388996	2
0	1363	42.538426055663	0
0	1365	42.585632534351	1
0	1367	42.644993675408	2
0	1369	42.674934426166	2
0	1372	42.725209903195	2
0	1375	42.752711950603	2
0	1378	42.810154014684	2
0	1382	42.909320681351	0
0	1384	43.026121055803	1
0	1386	43.055223864412	2
0	1389	43.154390531079	0
0	1391	43.15723443552	1
0	1393	43.256401102187	0
0	1395	43.257358962565	1
0	1397	43.332801999833	2
0	1400	43.4319686665	0
0	1402	43.438311667146	1
0	1404	43.537478333813	0
0	1406	43.638529087096	1
0	1408	43.737695753763	0
0	1410	43.82647346627	1
0	1412	43.851464334332	2
0	1415	43.94732491483	2
0	1418	43.965671907666	2
0	1420	44.001217489869	2
0	1424	44.100384156536	0
0	1426	44.115526052555	1
0	1428	44.13103698308	2
0	1431	44.230203649747	0
0	1433	44.314462732705	1
0	1435	44.316083065996	2
0	1437	44.350971798864	2
0	1441	44.450138465531	0
0	1443	44.696702084296	1
0	1445	44.795868750963	0
0	1447	44.804419886689	1
0	1449	44.884392935701	2
0	1452	44.948249632966	2
0	1455	45.047416299633	0
0	1457	45.115130244507	1
0	1459	45.115591803015	2
0	1461	45.203463287755	2
0	1465	45.25448589239	2
0	1468	45.353652559057	0
0	1470	45.429661577115	1
0	1472	45.495301725145	2
0	1474	45.499589284227	2
0	1477	45.549706266958	2
0	1481	45.630468815778	2
0	1483	45.633683817208	2
0	1486	45.720834099634	2
0	1490	45.820000766301	0
0	1492	45.846042814578	1
0	1494	45.945209481245	0
0	1496	45.991791503776	1
0	1498	45.997988672711	2
0	1500	46.042526748141	2
0	1504	46.116608347289	2
0	1507	46.203942438089	2
0	1510	46.227073861166	2
0	1513	46.326240527833	0
0	1515	46.347098792677	1
0	1517	46.441418869406	2
0	1520	46.540585536073	0
0	1522	46.882463974674	1
0	1524	46.981630641341	0
0	1526	47.134967832802	1
0	1528	47.234134499469	0
0	1530	47.354066292781	1
0	1532	47.36036708971	2
0	1535	47.459533756377	0
0	1537	47.470611049565	1
0	1539	47.55667876132	2
0	1541	47.559448416513	2
0	1544	47.655737859435	2
0	1548	47.663030161731	2
0	1551	47.762196828398	0
0	1553	47.993021418619	1
0	1555	48.092188085286	0
0	1557	48.137016018453	1
0	1559	48.144605240818	2
0	1562	48.243771907485	0
0	1564	48.315708874464	1
0	1566	48.414875541131	0
0	1568	48.443621528726	1
0	1570	48.502219176513	2
0	1573	48.60138584318	0
0	1575	48.651265713925	1
0	1577	48.750432380592	0
0	1579	48.752249047632	1
0	1581	48.851415714299	0
0	1583	49.245970673598	1
0	1585	49.345137340265	0
0	1587	49.401475713366	1
0	1589	49.417053822871	2
0	1592	49.516220489538	0
0	1594	49.741464545276	1
0	1596	49.818692617164	2
0	1598	49.835123409975	2
0	1602	49.934290076642	0
0	1604	49.940833685123	1
0	1606	50.016199299387	2
0	1609	50.094808264955	2
0	1612	50.177175982114	2
0	1615	50.276342648781	0
0	1617	50.302834548622	1
0	1619	50.337016081976	2
0	1622	50.436182748643	0
0	1624	50.641740162554	1
0	1626	50.740906829221	0
0	1628	50.756966012823	1
0	1630	50.764905981674	2
0	1632	50.774127940679	2
0	1636	50.873294607346	0
0	1638	50.910656932748	1
0	1640	50.937373884549	2
0	1642	50.953469911295	2
0	1644	50.978783264609	2
0	1647	51.016700998585	2
0	1652	51.115867665252	0
0	1654	51.153648301905	1
0	1656	51.252814968572	0
0	1658	51.259824404296	1
0	1660	51.358991070963	0
0	1662	51.423751389282	1
0	1664	51.522918055949	0
0	1666	51.54033340255	1
0	1668	51.589039497902	2
0	1671	51.688206164569	0
0	1673	51.692731122997	1
0	1675	51.7211149777	2
0	1678	51.820281644367	0
0	1680	51.879700474355	1
0	1682	51.977395997355	2
0	1685	52.076562664022	0
0	1687	52.08517348188	1
0	1689	52.184340148547	0
0	1691	52.323116016799	1
0	1693	52.422282683466	0
0	1695	52.825940049147	1
0	1697	52.925106715814	0
0	1699	52.984904261322	1
0	1701	53.084070927989	0
0	1703	53.108439188087	1
0	1705	53.108629658897	2
0	1707	53.157627422127	2
0	1711	53.208839490731	2
0	1714	53.296380242365	2
0	1717	53.395546909032	0
0	1719	53.587686970581	1
0	1721	53.66804176642	2
0	1724	53.767208433087	0
0	1726	53.784162559071	1
0	1728	53.790569017963	2
0	1730	53.87595957513	2
0	1734	53.975126241797	0
0	1736	54.037780113962	1
0	1738	54.136946780629	0
0	1740	54.181417123955	1
0	1742	54.206758734033	2
0	1745	54.3059254007	0
0	1747	54.459197274041	1
0	1749	54.463333557437	2
0	1752	54.562500224104	0
0	1754	54.679242342661	1
0	1756	54.751713895433	2
0	1759	54.8508805621	0
0	1761	54.973071154717	1
0	1763	55.072237821384	0
0	1765	55.316419947859	1
0	1767	55.364511186816	2
0	1770	55.417787037001	2
0	1773	55.516953703668	0
0	1775	55.543206741523	1
0	1777	55.64237340819	0
0	1779	55.814261235563	1
0	1781	55.89559930123	2
0	1784	55.969148693539	2
0	1787	56.022818800299	2
0	1790	56.121985466966	0
0	1792	56.392336209748	1
0	1794	56.403382324203	2
0	1796	56.418211899863	2
0	1798	56.456615538908	2
0	1800	56.485372972863	2
0	1806	56.58453963953	0
0	1808	56.653973546661	1
0	1810	56.739550637473	2
0	1813	56.83871730414	0
0	1815	56.927679025746	1
0	1817	57.026845692413	0
0	1819	57.100023156415	1
0	1821	57.199189823082	0
0	1823	57.312254603607	1
0	1825	57.411421270274	0
0	1827	57.52120168417	1
0	1829	57.620368350837	0
0	1831	57.657913487547	1
0	1833	57.703509350262	2
0	1836	57.802676016929	0
0	1838	57.83556434267	1
0	1840	57.930156300064	2
0	1843	58.029322966731	0
0	1845	58.10455305619	1
0	1847	58.110384995888	2
0	1850	58.208579571124	2
0	1853	58.250375602972	2
0	1856	58.335620770803	2
0	1859	58.43401801588	2
0	1862	58.521950362333	2
0	1865	58.621117029	0
0	1867	59.022103788745	1
0	1869	59.121270455412	0
0	1871	59.273536604212	1
0	1873	59.372703270879	0
0	1875	59.394811822445	1
0	1877	59.493978489112	0
0	1879	59.602624030454	1
0	1881	59.619840118163	2
0	1884	59.717207874427	2
0	1887	59.816374541094	0
0	1889	59.896908012492	1
0	1891	59.996074679159	0
0	1893	60.02839374182	1
0	1895	60.04277138066	2
0	1898	60.128552182746	2
0	1901	60.184879213	2
0	1903	60.188046311205	2
0	1905	60.198786979459	2
0	1910	60.297953646126	0
0	1912	60.390540112333	1
0	1914	60.460715968479	2
0	1916	60.474724744247	2
0	1919	60.538104611099	2
0	1921	60.540868419748	2
0	1924	60.568314985934	2
0	1929	60.667481652601	0
0	1931	60.748311467421	1
0	1933	60.789360799212	2
0	1936	60.851733780052	2
0	1939	60.936594067887	2
0	1942	61.002733617346	2
0	1944	61.008634882726	2
0	1946	61.019376940054	2
0	1951	61.118543606721	0
0	1953	61.361477058212	1
0	1955	61.412063928682	2
0	1957	61.421602061017	2
0	1960	61.46748972134	2
0	1962	61.479134240214	2
0	1964	61.510198242124	2
0	1968	61.536100233213	2
0	1972	61.590219147117	2
0	1975	61.620711549458	2
0	1978	61.658891123515	2
0	1982	61.758057790182	0
0	1984	62.086251732783	1
0	1986	62.115001861809	2
0	1989	62.214168528476	0
0	1991	62.365208694278	1
0	1993	62.464375360945	0
0	1995	62.544906292921	1
0	1997	62.570894857945	2
0	1999	62.576311939698	2
0	2003	62.675478606365	0
0	2005	62.763312400103	1
0	2007	62.86247906677	0
0	2009	62.866387337209	1
0	2011	62.94319810325	2
0	2014	63.042364769917	0
0	2016	63.200139546329	1
0	2018	63.230933829029	2
0	2021	63.330100495696	0
0	2023	63.447942290226	1
0	2025	63.547108956893	0
0	2027	63.596049754552	1
0	2029	63.695216421219	0
0	2031	63.760118628629	1
0	2033	63.859285295296	0
0	2035	64.149790177779	1
0	2037	64.173985283908	2
0	2039	64.243626374463	2
0	2042	64.253380519021	2
0	2044	64.268768293223	2
0	2049	64.36793495989	0
0	2051	64.393220217798	1
0	2053	64.492386884465	0
0	2055	64.516246001693	1
0	2057	64.592987783657	2
0	2060	64.630880686911	2
0	2062	64.684527498287	2
0	2066	64.783694164954	0
0	2068	64.944106822631	1
0	2070	65.040757822482	2
0	2073	65.139924489149	0
0	2075	65.152420364938	1
0	2077	65.220238604304	2
0	2080	65.319405270971	0
0	2082	65.406915409933	1
0	2084	65.41357727889	2
0	2087	65.512743945557	0
0	2089	65.775075460168	1
0	2091	65.815085636648	2
0	2093	65.869732265061	2
0	2097	65.968898931728	0
0	2099	65.973314803418	1
0	2101	66.001391438619	2
0	2104	66.100558105286	0
0	2106	66.101253310007	1
0	2108	66.130559227778	2
0	2110	66.155569552769	2
0	2114	66.254736219436	0
0	2116	66.483460694197	1
0	2118	66.515312558408	2
0	2121	66.614479225075	0
0	2123	66.754173067907	1
0	2125	66.765755082228	2
0	2127	66.795830092528	2
0	2129	66.850649974795	2
0	2134	66.949816641462	0
0	2136	66.969151078532	1
0	2138	67.068317745199	0
0	2140	67.105260889582	1
0	2142	67.204427556249	0
0	2144	67.216660661237	1
0	2146	67.21923976687	2
0	2149	67.318406433537	0
0	2151	67.366093958922	1
0	2153	67.388446195275	2
0	2156	67.484107975313	2
0	2159	67.58327464198	0
0	2161	67.59747155686	1
0	2163	67.673200729777	2
0	2166	67.752059097395	2
0	2169	67.851225764062	0
0	2171	67.883451020584	1
0	2173	67.936238504424	2
0	2175	67.948816089018	2
0	2178	67.994286639849	2
0	2182	68.065538495224	2
0	2185	68.129630310087	2
0	2188	68.228796976754	0
0	2190	68.29178972241	1
0	2192	68.292606752314	2
0	2194	68.32331633984	2
0	2196	68.34508772805	2
0	2201	68.434633927883	2
0	2204	68.521689547737	2
0	2206	68.532831649902	2
0	2209	68.545593661671	2
0	2211	68.562147570503	2
0	2215	68.63842068181	2
0	2218	68.658193780526	2
0	2222	68.757360447193	0
0	2224	68.843680187542	1
0	2226	68.847526202337	2
0	2228	68.904896109891	2
0	2232	69.004062776558	0
0	2234	69.230122788052	1
0	2236	69.329289454719	0
0	2238	69.385231568647	1
0	2240	69.484398235314	0
0	2242	69.734301094543	1
0	2244	69.83346776121	0
0	2246	69.87010310181	1
0	2248	69.962201673219	2
0	2251	69.975369034884	2
0	2253	70.006309828545	2
0	2257	70.105476495212	0
0	2259	70.309334600517	1
0	2261	70.406733776595	2
0	2264	70.505900443262	0
0	2266	70.560019121562	1
0	2268	70.659185788229	0
0	2270	70.819277952617	1
0	2272	70.918444619284	0
0	2274	71.185688462542	1
0	2276	71.284855129209	0
0	2278	71.512307846211	1
0	2280	71.611474512878	0
0	2282	71.706944661069	1
0	2284	71.738926507875	2
0	2287	71.807455585223	2
0	2290	71.852236491504	2
0	2293	71.951403158171	0
0	2295	72.076885902893	1
0	2297	72.126955990757	2
0	2300	72.212971169158	2
0	2303	72.230778500921	2
0	2306	72.329945167588	0
0	2308	72.357103319542	1
0	2310	72.436897815593	2
0	2313	72.501278519889	2
0	2316	72.590816287973	2
0	2318	72.596618260176	2
0	2321	72.601300876445	2
0	2323	72.611752668886	2
0	2328	72.710919335553	0
0	2330	72.752720252869	1
0	2332	72.851886919536	0
0	2334	72.973080288974	1
0	2336	73.051481943387	2
0	2339	73.150648610054	0
0	2341	73.180286128484	1
0	2343	73.279452795151	0
0	2345	73.310664168677	1
0	2347	73.409830835344	0
0	2349	73.721651496152	1
0	2351	73.820818162819	0
0	2353	73.914611719564	1
0	2355	73.959890656187	2
0	2357	73.969880775115	2
0	2361	74.069047441782	0
0	2363	74.262870900703	1
0	2365	74.36203756737	0
0	2367	74.511530885281	1
0	2369	74.544936154235	2
0	2372	74.615931859497	2
0	2374	74.643879895006	2
0	2378	74.71978858628	2
0	2381	74.757970875887	2
0	2383	74.815627248747	2
0	2386	74.854031986611	2
0	2389	74.883475830067	2
0	2391	74.892341035619	2
0	2395	74.970847340156	2
0	2397	74.974945002072	2
0	2402	75.074111668739	0
0	2404	75.137763045002	1
0	2406	75.200007689827	2
0	2409	75.291379666234	2
0	2412	75.344816367043	2
0	2415	75.44398303371	0
0	2417	75.466272766694	1
0	2419	75.486615332905	2
0	2421	75.498238809725	2
0	2425	75.597405476392	0
0	2427	75.682855570261	1
0	2429	75.782022236928	0
0	2431	75.783080832561	1
0	2433	75.882247499228	0
0	2435	75.972234399605	1
0	2437	76.036079177883	2
0	2439	76.058903405902	2
0	2443	76.158070072569	0
0	2445	76.184469453004	1
0	2447	76.283636119671	0
0	2449	76.305700210707	1
0	2451	76.404866877374	0
0	2453	76.474450064794	1
0	2455	76.542936400902	2
0	2458	76.591782754668	2
0	2461	76.690949421335	0
0	2463	76.707872377123	1
0	2465	76.80703904379	0
0	2467	76.81806490856	1
0	2469	76.845381271655	2
0	2471	76.876378381266	2
0	2475	76.975545047933	0
0	2477	77.315699315364	1
0	2479	77.414865982031	0
0	2481	77.5771328334	1
0	2483	77.631155460019	2
0	2486	77.71100144144	2
0	2488	77.715382293322	2
0	2492	77.814548959989	0
0	2494	78.024627738835	1
0	2496	78.082636857484	2
0	2498	78.102513086295	2
0	2502	78.201679752962	0
0	2504	78.214030199301	1
0	2506	78.285110464266	2
0	2508	78.293617669788	2
0	2512	78.392784336455	0
0	2514	78.576640150879	1
0	2516	78.675806817546	0
0	2518	78.700365483281	1
0	2520	78.799532149948	0
0	2522	78.861750877301	1
0	2524	78.960917543968	0
0	2526	79.063584367447	1
0	2528	79.083958158354	2
0	2531	79.183124825021	0
0	2533	79.26021225972	1
0	2535	79.304828861626	2
0	2538	79.403995528293	0
0	2540	79.456387989372	1
0	2542	79.51837803333	2
0	2544	79.545543822988	2
0	2546	79.551554018033	2
0	2550	79.638296285572	2
0	2554	79.737462952239	0
0	2556	79.814771471866	1
0	2558	79.913938138533	0
0	2560	79.958541526978	1
0	2562	80.057708193645	0
0	2564	80.463076634644	1
0	2566	80.559236658672	2
0	2569	80.578606520815	2
0	2571	80.63057542002	2
0	2573	80.638768444613	2
0	2578	80.73793511128	0
0	2580	80.772991469003	1
0	2582	80.87215813567	0
0	2584	80.891014080936	1
0	2586	80.967450989509	2
0	2588	80.980685948832	2
0	2592	81.079852615499	0