version 3
run RBACompara-9-20250302-17:43:28-5452
attr configname RBACompara
attr datetime 20250302-17:43:28
attr datetimef 20250302-174328
attr experiment RBACompara
attr inifile omnetpp.ini
attr iterationvars "$0=0ms, $iaMean=5"
attr iterationvarsd 0ms/iaMean=5
attr iterationvarsf 0ms,iaMean=5-
attr measurement "$0=0ms, $iaMean=5"
attr network Aloha
attr processid 5452
attr repetition 0
attr replication #0
attr resultdir results
attr runnumber 9
attr seedset 9
itervar iaMean 5
config repeat 1
config Aloha.slotTime 0ms
config Aloha.host[*].iaTime exponential(5s)
config sim-time-limit 120min
config network Aloha
config Aloha.numHosts 20
config Aloha.slotTime 0s
config Aloha.txRate 9.6kbps
config Aloha.host[*].pkLenBits 952b
config **.x "uniform(0m, 1000m)"
config **.y "uniform(0m, 1000m)"
config **.animationHoldTimeOnCollision 0s
config **.idleAnimationSpeed 1
config **.transmissionEdgeAnimationSpeed 1e-6
config **.midTransmissionAnimationSpeed 1e-1

vector 0 Aloha.server serverChannelState:vector ETV
attr enum IDLE=0,TRANSMISSION=1,COLLISION=2
attr recordingmode vector
attr source channelState
attr title "Channel state"
vector 1 Aloha.server channelUtilization:vector ETV
attr interpolationmode linear
attr recordingmode vector
attr source timeavg(receive)
attr title "channel utilization"
vector 2 Aloha.host[0] radioState:vector ETV
attr enum IDLE=0,TRANSMIT=1
attr recordingmode vector
attr source state
attr title "Radio state"
vector 3 Aloha.host[1] radioState:vector ETV
attr enum IDLE=0,TRANSMIT=1
attr recordingmode vector
attr source state
attr title "Radio state"
vector 4 Aloha.host[2] radioState:vector ETV
attr enum IDLE=0,TRANSMIT=1
attr recordingmode vector
attr source state
attr title "Radio state"
vector 5 Aloha.host[3] radioState:vector ETV
attr enum IDLE=0,TRANSMIT=1
attr recordingmode vector
attr source state
attr title "Radio state"
vector 6 Aloha.host[4] radioState:vector ETV
attr enum IDLE=0,TRANSMIT=1
attr recordingmode vector
attr source state
attr title "Radio state"
vector 7 Aloha.host[5] radioState:vector ETV
attr enum IDLE=0,TRANSMIT=1
attr recordingmode vector
attr source state
attr title "Radio state"
vector 8 Aloha.host[6] radioState:vector ETV
attr enum IDLE=0,TRANSMIT=1
attr recordingmode vector
attr source state
attr title "Radio state"
vector 9 Aloha.host[7] radioState:vector ETV
attr enum IDLE=0,TRANSMIT=1
attr recordingmode vector
attr source state
attr title "Radio state"
vector 10 Aloha.host[8] radioState:vector ETV
attr enum IDLE=0,TRANSMIT=1
attr recordingmode vector
attr source state
attr title "Radio state"
vector 11 Aloha.host[9] radioState:vector ETV
attr enum IDLE=0,TRANSMIT=1
attr recordingmode vector
attr source state
attr title "Radio state"
vector 12 Aloha.host[10] radioState:vector ETV
attr enum IDLE=0,TRANSMIT=1
attr recordingmode vector
attr source state
attr title "Radio state"
vector 13 Aloha.host[11] radioState:vector ETV
attr enum IDLE=0,TRANSMIT=1
attr recordingmode vector
attr source state
attr title "Radio state"
vector 14 Aloha.host[12] radioState:vector ETV
attr enum IDLE=0,TRANSMIT=1
attr recordingmode vector
attr source state
attr title "Radio state"
vector 15 Aloha.host[13] radioState:vector ETV
attr enum IDLE=0,TRANSMIT=1
attr recordingmode vector
attr source state
attr title "Radio state"
vector 16 Aloha.host[14] radioState:vector ETV
attr enum IDLE=0,TRANSMIT=1
attr recordingmode vector
attr source state
attr title "Radio state"
vector 17 Aloha.host[15] radioState:vector ETV
attr enum IDLE=0,TRANSMIT=1
attr recordingmode vector
attr source state
attr title "Radio state"
vector 18 Aloha.host[16] radioState:vector ETV
attr enum IDLE=0,TRANSMIT=1
attr recordingmode vector
attr source state
attr title "Radio state"
vector 19 Aloha.host[17] radioState:vector ETV
attr enum IDLE=0,TRANSMIT=1
attr recordingmode vector
attr source state
attr title "Radio state"
vector 20 Aloha.host[18] radioState:vector ETV
attr enum IDLE=0,TRANSMIT=1
attr recordingmode vector
attr source state
attr title "Radio state"
vector 21 Aloha.host[19] radioState:vector ETV
attr enum IDLE=0,TRANSMIT=1
attr recordingmode vector
attr source state
attr title "Radio state"
0	0	0	0
0	2	0.350342958526	1
0	4	0.413194580932	2
0	7	0.512361247599	0
0	9	0.551633926335	1
0	11	0.650800593002	0
0	13	0.929459199573	1
0	15	1.02862586624	0
0	17	1.175239844865	1
0	19	1.274406511532	0
0	21	2.30056667723	1
0	23	2.351693437344	2
0	26	2.450860104011	0
0	28	3.133695812319	1
0	30	3.232862478986	0
0	32	3.376338511595	1
0	34	3.475505178262	0
0	36	3.681159791146	1
0	38	3.780326457813	0
0	40	3.843584329982	1
0	42	3.942750996649	0
0	44	4.160550844531	1
0	46	4.259717511198	0
0	48	4.498845838463	1
0	50	4.59801250513	0
0	52	5.10226437842	1
0	54	5.201431045087	0
0	56	5.242553176702	1
0	58	5.341719843369	0
0	60	5.928025615403	1
0	62	6.02719228207	0
0	64	6.414358994068	1
0	66	6.513525660735	0
0	68	7.241241723876	1
0	70	7.340408390543	0
0	72	7.471859916127	1
0	74	7.571026582794	0
0	76	7.591258790186	1
0	78	7.690425456853	0
0	80	7.937452780714	1
0	82	8.036619447381	0
0	84	8.141570206532	1
0	86	8.212592226416	2
0	89	8.311758893083	0
0	91	8.711147226056	1
0	93	8.810313892723	0
0	95	8.987756596085	1
0	97	9.086923262752	0
0	99	9.542032620197	1
0	101	9.565347969689	2
0	103	9.627292819409	2
0	107	9.726459486076	0
0	109	10.309874016062	1
0	111	10.409040682729	0
0	113	10.544088601172	1
0	115	10.643255267839	0
0	117	11.44636769261	1
0	119	11.465310066826	2
0	122	11.561948450147	2
0	125	11.661115116814	0
0	127	11.687432842844	1
0	129	11.697847029292	2
0	132	11.797013695959	0
0	134	11.94648897998	1
0	136	12.045655646647	0
0	138	12.285968200853	1
0	140	12.38513486752	0
0	142	12.586406140772	1
0	144	12.685572807439	0
0	146	12.744844184369	1
0	148	12.844010851036	0
0	150	13.478616081945	1
0	152	13.494401454274	2
0	155	13.593568120941	0
0	157	13.796767283101	1
0	159	13.809152088831	2
0	162	13.908318755498	0
0	164	13.950146136769	1
0	166	14.049312803436	0
0	168	14.058806575089	1
0	170	14.11094780227	2
0	173	14.210114468937	0
0	175	14.430567933164	1
0	177	14.529734599831	0
0	179	14.549373886542	1
0	181	14.648540553209	0
0	183	14.726406983191	1
0	185	14.825573649858	0
0	187	14.828269486944	1
0	189	14.927436153611	0
0	191	15.689943431443	1
0	193	15.754399545847	2
0	195	15.779824327785	2
0	199	15.878990994452	0
0	201	16.297043185307	1
0	203	16.396209851974	0
0	205	16.766294242668	1
0	207	16.792799192875	2
0	209	16.830359189832	2
0	213	16.929525856499	0
0	215	17.004993295445	1
0	217	17.083082380161	2
0	220	17.182249046828	0
0	222	17.255279339717	1
0	224	17.354446006384	0
0	226	17.364074677179	1
0	228	17.463241343846	0
0	230	17.612247589107	1
0	232	17.711414255774	0
0	234	17.740147467367	1
0	236	17.839314134034	0
0	238	18.052100416268	1
0	240	18.151267082935	0
0	242	18.326617504592	1
0	244	18.328274383392	2
0	247	18.427441050059	0
0	249	18.674869233361	1
0	251	18.774035900028	0
0	253	19.105929007332	1
0	255	19.205095673999	0
0	257	19.881347035541	1
0	259	19.898100811513	2
0	261	19.977293259122	2
0	265	20.076459925789	0
0	267	20.09617600161	1
0	269	20.195342668277	0
0	271	20.248450360462	1
0	273	20.347617027129	0
0	275	20.366682760166	1
0	277	20.465849426833	0
0	279	20.479506900652	1
0	281	20.495323931827	2
0	284	20.594490598494	0
0	286	20.617362058828	1
0	288	20.716528725495	0
0	290	20.743756840885	1
0	292	20.842923507552	0
0	294	21.10056206261	1
0	296	21.199728729277	0
0	298	21.461043592799	1
0	300	21.560210259466	0
0	302	22.070365170452	1
0	304	22.151302748721	2
0	307	22.250469415388	0
0	309	22.427460216462	1
0	311	22.443048965089	2
0	314	22.542215631756	0
0	316	22.677547853923	1
0	318	22.77671452059	0
0	320	23.445520081202	1
0	322	23.544686747869	0
0	324	23.652473632244	1
0	326	23.701821667894	2
0	328	23.732013053676	2
0	330	23.732247841385	2
0	335	23.831414508052	0
0	337	23.920868466418	1
0	339	23.997527309145	2
0	342	24.096693975812	0
0	344	24.176982720572	1
0	346	24.276149387239	0
0	348	24.646895257455	1
0	350	24.746061924122	0
0	352	24.761705906851	1
0	354	24.844665168847	2
0	357	24.943831835514	0
0	359	24.984723815291	1
0	361	25.073467949566	2
0	364	25.172634616233	0
0	366	25.915498558855	1
0	368	25.980185869909	2
0	371	26.079352536576	0
0	373	26.522199217779	1
0	375	26.621365884446	0
0	377	26.708610309071	1
0	379	26.807776975738	0
0	381	27.228015530396	1
0	383	27.327182197063	0
0	385	27.479920985634	1
0	387	27.532488190304	2
0	389	27.56012923427	2
0	393	27.659295900937	0
0	395	27.761479539704	1
0	397	27.860646206371	0
0	399	27.89489572262	1
0	401	27.938780838676	2
0	404	28.037947505343	0
0	406	28.098829140741	1
0	408	28.197995807408	0
0	410	28.270292916525	1
0	412	28.369459583192	0
0	414	28.372825135959	1
0	416	28.471991802626	0
0	418	28.620230706859	1
0	420	28.660275775733	2
0	423	28.7594424424	0
0	425	28.78491099393	1
0	427	28.884077660597	0
0	429	28.976285688405	1
0	431	29.075452355072	0
0	433	29.129382629433	1
0	435	29.13409214021	2
0	438	29.233258806877	0
0	440	29.807346356585	1
0	442	29.89559335656	2
0	445	29.994760023227	0
0	447	30.196939791512	1
0	449	30.296106458179	0
0	451	30.353665687695	1
0	453	30.360941974345	2
0	456	30.460108641012	0
0	458	30.683458006833	1
0	460	30.7826246735	0
0	462	30.784748843835	1
0	464	30.883915510502	0
0	466	31.003906997976	1
0	468	31.103073664643	0
0	470	31.874314712906	1
0	472	31.911195068522	2
0	475	32.003625796106	2
0	478	32.062452763543	2
0	481	32.105067123595	2
0	483	32.105346109683	2
0	487	32.20451277635	0
0	489	32.296336637198	1
0	491	32.298675483564	2
0	493	32.313266741677	2
0	497	32.412433408344	0
0	499	32.650375867177	1
0	501	32.749542533844	0
0	503	32.831706324024	1
0	505	32.930872990691	0
0	507	32.958968880038	1
0	509	33.058135546705	0
0	511	33.094697685411	1
0	513	33.14114237996	2
0	516	33.240309046627	0
0	518	33.784545255701	1
0	520	33.796241019738	2
0	523	33.895407686405	0
0	525	34.256539280138	1
0	527	34.355705946805	0
0	529	34.359143410403	1
0	531	34.415286714574	2
0	534	34.514453381241	0
0	536	34.586162194525	1
0	538	34.685328861192	0
0	540	34.714773042028	1
0	542	34.775289447489	2
0	545	34.874456114156	0
0	547	35.324276720738	1
0	549	35.423443387405	0
0	551	35.530634473321	1
0	553	35.629801139988	0
0	555	35.671048988888	1
0	557	35.770215655555	0
0	559	35.986981588198	1
0	561	36.020420089022	2
0	564	36.119586755689	0
0	566	36.802170293065	1
0	568	36.829514666151	2
0	571	36.928681332818	0
0	573	36.973088955321	1
0	575	37.072255621988	0
0	577	37.236406628856	1
0	579	37.335573295523	0
0	581	38.157913113548	1
0	583	38.257079780215	0
0	585	38.441080288981	1
0	587	38.540246955648	0
0	589	39.939045514239	1
0	591	40.025705178613	2
0	594	40.068700344439	2
0	597	40.167867011106	0
0	599	40.247157522319	1
0	601	40.346324188986	0
0	603	40.379775252448	1
0	605	40.42356102952	2
0	608	40.522727696187	0
0	610	41.259153416035	1
0	612	41.358320082702	0
0	614	41.581329183483	1
0	616	41.623625220072	2
0	619	41.722791886739	0
0	621	41.935607489594	1
0	623	42.034774156261	0
0	625	42.430602166004	1
0	627	42.529768832671	0
0	629	42.659706384012	1
0	631	42.758873050679	0
0	633	43.743440289866	1
0	635	43.842606956533	0
0	637	44.195980670146	1
0	639	44.21585012587	2
0	642	44.315016792537	0
0	644	44.386503668789	1
0	646	44.485670335456	0
0	648	44.672945250674	1
0	650	44.733969942828	2
0	653	44.833136609495	0
0	655	44.984673681318	1
0	657	45.083840347985	0
0	659	45.291376363652	1
0	661	45.299279256013	2
0	663	45.353592207773	2
0	667	45.45275887444	0
0	669	45.770599302386	1
0	671	45.795455483297	2
0	674	45.894622149964	0
0	676	46.402382924438	1
0	678	46.501549591105	0
0	680	46.811901688012	1
0	682	46.911068354679	0
0	684	47.910300824372	1
0	686	47.96690798189	2
0	688	47.980510009675	2
0	690	48.009195742001	2
0	693	48.040196506121	2
0	698	48.139363172788	0
0	700	48.251735624691	1
0	702	48.305426464183	2
0	704	48.311511685195	2
0	708	48.410678351862	0
0	710	48.996775180389	1
0	712	49.095941847056	0
0	714	49.518153172742	1
0	716	49.617319839409	0
0	718	53.218281403911	1
0	720	53.229876125361	2
0	722	53.239696998611	2
0	725	53.322321495561	2
0	729	53.379881172033	2
0	731	53.387369709434	2
0	735	53.486536376101	0
0	737	53.578784689447	1
0	739	53.677951356114	0
0	741	53.701108649533	1
0	743	53.724332409072	2
0	746	53.823499075739	0
0	748	53.960516999485	1
0	750	54.031344937647	2
0	752	54.048839839369	2
0	756	54.148006506036	0
0	758	54.383103333009	1
0	760	54.403665242373	2
0	763	54.498517945008	2
0	766	54.597684611675	0
0	768	54.674072050375	1
0	770	54.748743127784	2
0	773	54.847909794451	0
0	775	54.964533657866	1
0	777	55.063700324533	0
0	779	55.265112637777	1
0	781	55.364279304444	0
0	783	55.397402519875	1
0	785	55.418648537711	2
0	788	55.517815204378	0
0	790	55.555711300808	1
0	792	55.650090993781	2
0	795	55.749257660448	0
0	797	56.252088246329	1
0	799	56.26662947742	2
0	802	56.365266412852	2
0	805	56.464433079519	0
0	807	56.512879490294	1
0	809	56.532381404778	2
0	812	56.62228322811	2
0	815	56.721449894777	0
0	817	57.306792658283	1
0	819	57.307412191852	2
0	822	57.406578858519	0
0	824	58.034878757177	1
0	826	58.134045423844	0
0	828	58.153944675694	1
0	830	58.253111342361	0
0	832	59.053660485657	1
0	834	59.152827152324	0
0	836	60.102431806308	1
0	838	60.201598472975	0
0	840	60.363298502179	1
0	842	60.462465168846	0
0	844	60.609275489023	1
0	846	60.70844215569	0
0	848	60.794622393676	1
0	850	60.834741732551	2
0	853	60.933908399218	0
0	855	60.972821322531	1
0	857	61.071987989198	0
0	859	61.078584660503	1
0	861	61.17775132717	0
0	863	61.446299724599	1
0	865	61.490165178042	2
0	868	61.54953879215	2
0	871	61.648705458817	0
0	873	61.972194914588	1
0	875	62.071361581255	0
0	877	62.293638518212	1
0	879	62.3250114451	2
0	882	62.424178111767	0
0	884	62.518156531982	1
0	886	62.617323198649	0
0	888	62.816079519946	1
0	890	62.915246186613	0
0	892	62.993332940216	1
0	894	63.092499606883	0
0	896	63.489235321592	1
0	898	63.581464299734	2
0	901	63.680630966401	0
0	903	64.643201259194	1
0	905	64.742367925861	0
0	907	64.753570018139	1
0	909	64.757838999867	2
0	912	64.857005666534	0
0	914	65.288498096549	1
0	916	65.387664763216	0
0	918	65.492385803325	1
0	920	65.591552469992	0
0	922	65.604788444495	1
0	924	65.703955111162	0
0	926	65.721712808076	1
0	928	65.820879474743	0
0	930	65.835728944503	1
0	932	65.93489561117	0
0	934	67.130482185629	1
0	936	67.229648852296	0
0	938	67.342310397101	1
0	940	67.400397211701	2
0	942	67.41233340306	2
0	946	67.511500069727	0
0	948	68.071277608706	1
0	950	68.170444275373	0
0	952	68.188286884759	1
0	954	68.287453551426	0
0	956	68.675646671577	1
0	958	68.698796444706	2
0	961	68.797963111373	0
0	963	68.818651249938	1
0	965	68.917817916605	0
0	967	69.223326309337	1
0	969	69.322492976004	0
0	971	69.452001333972	1
0	973	69.551168000639	0
0	975	69.683186791571	1
0	977	69.721725726796	2
0	980	69.792234955255	2
0	983	69.891401621922	0
0	985	70.495419714433	1
0	987	70.5945863811	0
0	989	70.632873351054	1
0	991	70.673982714609	2
0	994	70.773149381276	0
0	996	71.112679508675	1
0	998	71.131195906138	2
0	1001	71.230362572805	0
0	1003	71.527264174399	1
0	1005	71.625389452698	2
0	1008	71.724556119365	0
0	1010	71.733527066548	1
0	1012	71.744193057552	2
0	1015	71.843359724219	0
0	1017	71.9694289009	1
0	1019	72.06537211062	2
0	1022	72.164538777287	0
0	1024	72.474707511775	1
0	1026	72.573874178442	0
0	1028	72.643913406478	1
0	1030	72.743080073145	0
0	1032	72.802218477428	1
0	1034	72.901385144095	0
0	1036	73.131297129178	1
0	1038	73.230463795845	0
0	1040	73.3365073739	1
0	1042	73.414532301701	2
0	1045	73.513698968368	0
0	1047	73.56775583919	1
0	1049	73.666922505857	0
0	1051	73.677038432935	1
0	1053	73.776205099602	0
0	1055	74.170482811659	1
0	1057	74.269649478326	0
0	1059	74.779355416455	1
0	1061	74.811657132896	2
0	1064	74.910823799563	0
0	1066	75.065727194311	1
0	1068	75.164893860978	0
0	1070	75.419290449117	1
0	1072	75.518457115784	0
0	1074	75.579951251345	1
0	1076	75.679117918012	0
0	1078	75.782200994591	1
0	1080	75.881367661258	0
0	1082	76.360114658884	1
0	1084	76.459281325551	0
0	1086	77.125241711454	1
0	1088	77.182984804459	2
0	1091	77.282151471126	0
0	1093	77.366921836672	1
0	1095	77.466088503339	0
0	1097	77.882837570644	1
0	1099	77.982004237311	0
0	1101	78.204303089872	1
0	1103	78.289930851653	2
0	1106	78.38909751832	0
0	1108	78.490587913939	1
0	1110	78.580387162936	2
0	1113	78.621566572499	2
0	1116	78.720733239166	0
0	1118	79.299872788316	1
0	1120	79.310713457943	2
0	1123	79.40988012461	0
0	1125	79.842940622694	1
0	1127	79.942107289361	0
0	1129	80.168249890164	1
0	1131	80.204007020077	2
0	1133	80.236795489436	2
0	1137	80.307290765841	2
0	1140	80.406457432508	0
0	1142	80.512397540232	1
0	1144	80.611564206899	0
0	1146	80.71603926654	1
0	1148	80.815205933207	0
0	1150	80.975543855907	1
0	1152	81.074710522574	0
0	1154	81.34293802997	1
0	1156	81.442104696637	0
0	1158	81.537358263323	1
0	1160	81.63652492999	0
0	1162	81.945486914606	1
0	1164	82.044653581273	0
0	1166	82.74780169893	1
0	1168	82.846968365597	0
0	1170	83.249836985316	1
0	1172	83.259393781048	2
0	1175	83.358560447715	0
0	1177	83.475580932135	1
0	1179	83.574747598802	0
0	1181	83.74604026508	1
0	1183	83.845206931747	0
0	1185	84.075573260488	1
0	1187	84.121143211089	2
0	1190	84.220309877756	0
0	1192	85.12410908568	1
0	1194	85.199349701703	2
0	1197	85.29851636837	0
0	1199	85.391194626868	1
0	1201	85.490361293535	0
0	1203	85.637270666923	1
0	1205	85.73643733359	0
0	1207	86.186135234313	1
0	1209	86.264912111071	2
0	1212	86.364078777738	0
0	1214	86.507805490953	1
0	1216	86.567209472347	2
0	1219	86.666376139014	0
0	1221	87.220115695576	1
0	1223	87.319282362243	0
0	1225	87.333338676368	1
0	1227	87.432505343035	0
0	1229	87.597316841963	1
0	1231	87.662945443665	2
0	1234	87.762112110332	0
0	1236	88.360125293084	1
0	1238	88.459291959751	0
0	1240	88.630291241984	1
0	1242	88.729457908651	0
0	1244	88.777444420772	1
0	1246	88.783809257234	2
0	1248	88.864806132624	2
0	1252	88.963972799291	0
0	1254	89.096818033776	1
0	1256	89.116386500529	2
0	1259	89.215553167196	0
0	1261	89.31808933525	1
0	1263	89.417256001917	0
0	1265	89.544718671535	1
0	1267	89.643885338202	0
0	1269	89.976601649996	1
0	1271	90.075768316663	0
0	1273	90.831471598461	1
0	1275	90.930638265128	0
0	1277	91.04911499097	1
0	1279	91.148281657637	0
0	1281	91.16221415677	1
0	1283	91.261380823437	0
0	1285	91.263089130569	1
0	1287	91.287039529574	2
0	1290	91.386206196241	0
0	1292	91.567749416635	1
0	1294	91.666916083302	0
0	1296	91.805493159548	1
0	1298	91.840665077437	2
0	1300	91.85251155943	2
0	1304	91.951678226097	0
0	1306	92.37833234045	1
0	1308	92.477499007117	0
0	1310	92.518981820914	1
0	1312	92.618148487581	0
0	1314	92.651040116738	1
0	1316	92.750206783405	0
0	1318	93.068358092669	1
0	1320	93.167524759336	0
0	1322	93.239829435767	1
0	1324	93.338996102434	0
0	1326	93.525930778239	1
0	1328	93.625097444906	0
0	1330	94.059704464376	1
0	1332	94.082830839987	2
0	1334	94.109287800249	2
0	1338	94.208454466916	0
0	1340	94.348997577277	1
0	1342	94.350233059768	2
0	1345	94.449399726435	0
0	1347	94.557688242841	1
0	1349	94.646919429662	2
0	1352	94.746086096329	0
0	1354	94.861424532326	1
0	1356	94.912443096055	2
0	1358	94.941220060714	2
0	1362	95.040386727381	0
0	1364	95.542413465767	1
0	1366	95.548511511676	2
0	1369	95.647678178343	0
0	1371	95.869303529355	1
0	1373	95.914283110847	2
0	1375	95.953125910631	2
0	1379	96.022882336569	2
0	1382	96.122049003236	0
0	1384	96.988507564846	1
0	1386	97.087674231513	0
0	1388	97.712273696125	1
0	1390	97.811440362792	0
0	1392	98.085369688629	1
0	1394	98.184536355296	0
0	1396	98.725998660716	1
0	1398	98.750125721124	2
0	1401	98.849292387791	0
0	1403	98.967187044336	1
0	1405	99.066353711003	0
0	1407	99.091011231921	1
0	1409	99.175503434812	2
0	1412	99.274670101479	0
0	1414	99.330138874322	1
0	1416	99.429305540989	0
0	1418	99.643039674257	1
0	1420	99.742206340924	0
0	1422	99.823553826131	1
0	1424	99.922720492798	0
0	1426	99.949547845832	1
0	1428	100.048714512499	0
0	1430	100.077506142457	1
0	1432	100.176672809124	0
0	1434	100.300097170896	1
0	1436	100.322392446738	2
0	1439	100.421559113405	0
0	1441	100.654781741613	1
0	1443	100.674468357906	2
0	1446	100.773635024573	0
0	1448	100.784507684118	1
0	1450	100.883674350785	0
0	1452	100.904360865039	1
0	1454	100.957127491261	2
0	1457	101.020149423694	2
0	1460	101.075079656766	2
0	1463	101.174246323433	0
0	1465	101.406560131351	1
0	1467	101.505726798018	0
0	1469	101.595884289148	1
0	1471	101.6344537747	2
0	1474	101.728883582016	2
0	1477	101.828050248683	0
0	1479	102.040293601228	1
0	1481	102.139460267895	0
0	1483	102.193603447148	1
0	1485	102.237920663358	2
0	1488	102.337087330025	0
0	1490	102.611053366348	1
0	1492	102.710220033015	0
0	1494	103.065394438365	1
0	1496	103.164561105032	0
0	1498	103.17681260766	1
0	1500	103.275979274327	0
0	1502	103.765707782473	1
0	1504	103.86487444914	0
0	1506	103.889692973454	1
0	1508	103.974484447667	2
0	1511	104.073651114334	0
0	1513	104.198936699255	1
0	1515	104.298103365922	0
0	1517	104.419907562049	1
0	1519	104.519074228716	0
0	1521	104.578513921108	1
0	1523	104.677680587775	0
0	1525	104.705087398374	1
0	1527	104.804254065041	0
0	1529	105.226256075997	1
0	1531	105.305847834291	2
0	1534	105.405014500958	0
0	1536	105.461370133296	1
0	1538	105.560536799963	0
0	1540	105.664933609965	1
0	1542	105.764100276632	0
0	1544	105.9149228123	1
0	1546	106.014089478967	0
0	1548	106.014778191051	1
0	1550	106.113944857718	0
0	1552	106.301879328943	1
0	1554	106.36141770173	2
0	1557	106.460584368397	0
0	1559	106.94401967596	1
0	1561	107.043186342627	0
0	1563	107.554049356642	1
0	1565	107.559862233371	2
0	1568	107.659028900038	0
0	1570	107.888116393854	1
0	1572	107.940233862211	2
0	1575	107.991715863729	2
0	1578	108.090882530396	0
0	1580	108.164054796474	1
0	1582	108.263221463141	0
0	1584	108.478261735905	1
0	1586	108.483721554763	2
0	1589	108.58288822143	0
0	1591	109.24550783027	1
0	1593	109.281714608595	2
0	1596	109.380881275262	0
0	1598	109.842534794932	1
0	1600	109.941701461599	0
0	1602	109.953766031566	1
0	1604	110.014335106459	2
0	1607	110.113501773126	0
0	1609	110.27670213315	1
0	1611	110.375868799817	0
0	1613	110.399045041143	1
0	1615	110.409094313044	2
0	1618	110.508260979711	0
0	1620	110.669482593977	1
0	1622	110.768649260644	0
0	1624	111.109850175838	1
0	1626	111.209016842505	0
0	1628	111.312185819716	1
0	1630	111.353673003594	2
0	1633	111.413668440049	2
0	1636	111.512835106716	0
0	1638	111.685479798095	1
0	1640	111.784646464762	0
0	1642	112.183903581835	1
0	1644	112.283070248502	0
0	1646	112.558218350066	1
0	1648	112.657385016733	0
0	1650	112.665406354393	1
0	1652	112.76457302106	0
0	1654	112.80421514119	1
0	1656	112.903381807857	0
0	1658	112.950456645102	1
0	1660	113.049623311769	0
0	1662	113.10090973285	1
0	1664	113.200076399517	0
0	1666	113.312896099316	1
0	1668	113.326169491908	2
0	1671	113.425336158575	0
0	1673	113.427045038916	1
0	1675	113.456373211154	2
0	1678	113.555539877821	0
0	1680	114.45168493284	1
0	1682	114.550851599507	0
0	1684	114.573898001073	1
0	1686	114.67306466774	0
0	1688	114.747950869943	1
0	1690	114.84711753661	0
0	1692	115.144266984716	1
0	1694	115.154775938377	2
0	1697	115.253942605044	0
0	1699	115.622809633774	1
0	1701	115.660205518798	2
0	1704	115.759372185465	0
0	1706	115.811555372295	1
0	1708	115.910722038962	0
0	1710	115.920371754074	1
0	1712	116.019538420741	0
0	1714	116.042157219324	1
0	1716	116.141323885991	0
0	1718	116.50034898925	1
0	1720	116.599515655917	0
0	1722	116.604694960832	1
0	1724	116.703861627499	0
0	1726	116.833843763755	1
0	1728	116.933010430422	0
0	1730	116.955878238044	1
0	1732	117.055044904711	0
0	1734	117.16935644781	1
0	1736	117.268523114477	0
0	1738	117.712354557384	1
0	1740	117.811521224051	0
0	1742	118.126970770604	1
0	1744	118.226137437271	0
0	1746	118.316937442836	1
0	1748	118.416104109503	0
0	1750	118.601219349933	1
0	1752	118.7003860166	0
0	1754	118.839298109088	1
0	1756	118.862034639978	2
0	1759	118.961201306645	0
0	1761	119.113468485939	1
0	1763	119.120101745138	2
0	1765	119.180751253004	2
0	1769	119.279917919671	0
0	1771	119.422089774073	1
0	1773	119.52125644074	0
0	1775	119.664783091426	1
0	1777	119.763949758093	0
0	1779	119.917203128686	1
0	1781	120.016369795353	0
0	1783	120.155339653569	1
0	1785	120.254506320236	0
0	1787	120.801887619976	1
0	1789	120.825558373517	2
0	1792	120.924725040184	0
0	1794	121.030251801399	1
0	1796	121.129418468066	0
0	1798	121.977101337732	1
0	1800	122.076268004399	0
0	1802	122.132081085382	1
0	1804	122.224610494784	2
0	1807	122.323777161451	0
0	1809	122.342209072138	1
0	1811	122.441375738805	0
0	1813	122.527824520204	1
0	1815	122.626991186871	0
0	1817	122.731639309733	1
0	1819	122.8308059764	0
0	1821	122.861916109971	1
0	1823	122.926943475689	2
0	1826	123.026110142356	0
0	1828	123.279784113327	1
0	1830	123.378950779994	0
0	1832	123.486026499572	1
0	1834	123.585193166239	0
0	1836	124.441074801681	1
0	1838	124.540241468348	0
0	1840	125.135542094789	1
0	1842	125.234708761456	0
0	1844	125.518845427363	1
0	1846	125.61801209403	0
0	1848	125.744716894628	1
0	1850	125.843883561295	0
0	1852	125.93794391014	1
0	1854	126.031782996222	2
0	1857	126.130949662889	0
0	1859	126.398811932158	1
0	1861	126.445169522371	2
0	1864	126.544336189038	0
0	1866	126.697086593966	1
0	1868	126.796253260633	0
0	1870	126.87190242514	1
0	1872	126.919368585967	2
0	1875	127.018535252634	0
0	1877	127.363894695641	1
0	1879	127.387384004877	2
0	1882	127.486550671544	0
0	1884	127.605398703741	1
0	1886	127.647142010579	2
0	1889	127.746308677246	0
0	1891	127.761269662678	1
0	1893	127.860436329345	0
0	1895	127.950626433178	1
0	1897	128.049793099845	0
0	1899	128.162463059751	1
0	1901	128.261629726418	0
0	1903	128.318455134267	1
0	1905	128.417621800934	0
0	1907	128.799828446868	1
0	1909	128.898995113535	0
0	1911	129.579418694762	1
0	1913	129.678585361429	0
0	1915	129.842385986315	1
0	1917	129.941552652982	0
0	1919	130.170892409776	1
0	1921	130.208032412894	2
0	1923	130.211741212403	2
0	1927	130.31090787907	0
0	1929	130.429134602148	1
0	1931	130.45858589021	2
0	1933	130.466943616445	2
0	1935	130.490116257789	2
0	1940	130.589282924456	0
0	1942	130.596030010102	1
0	1944	130.695196676769	0
0	1946	130.819091999641	1
0	1948	130.868230128318	2
0	1951	130.967396794985	0
0	1953	131.980352443544	1
0	1955	131.998661652892	2
0	1958	132.097828319559	0
0	1960	132.664517280824	1
0	1962	132.763683947491	0
0	1964	132.904740601667	1
0	1966	133.003907268334	0
0	1968	133.566857039448	1
0	1970	133.628500029443	2
0	1973	133.72766669611	0
0	1975	134.399193707181	1
0	1977	134.498360373848	0
0	1979	134.675334553661	1
0	1981	134.774501220328	0
0	1983	135.081806419761	1
0	1985	135.085294713105	2
0	1987	135.102644647415	2
0	1989	135.157001309188	2
0	1994	135.219787833287	2
0	1997	135.318954499954	0
0	1999	135.39618664213	1
0	2001	135.399359187233	2
0	2003	135.402846167675	2
0	2007	135.502012834342	0
0	2009	135.681863308379	1
0	2011	135.781029975046	0
0	2013	136.024743802869	1
0	2015	136.123910469536	0
0	2017	136.475012882536	1
0	2019	136.570909533962	2
0	2022	136.614536003518	2
0	2025	136.713702670185	0
0	2027	136.742642098983	1
0	2029	136.84180876565	0
0	2031	137.069865542446	1
0	2033	137.169032209113	0
0	2035	137.681700354344	1
0	2037	137.697272411801	2
0	2040	137.796439078468	0
0	2042	138.303770841184	1
0	2044	138.402937507851	0
0	2046	138.42870065344	1
0	2048	138.527867320107	0
0	2050	138.670597388648	1
0	2052	138.733221540061	2
0	2055	138.808627320386	2
0	2058	138.907793987053	0
0	2060	139.022574680593	1
0	2062	139.12174134726	0
0	2064	139.365674350521	1
0	2066	139.464841017188	0
0	2068	139.950592663937	1
0	2070	140.049759330604	0
0	2072	140.231995650997	1
0	2074	140.331162317664	0
0	2076	140.332890649417	1
0	2078	140.432057316084	0
0	2080	141.677818402026	1
0	2082	141.776985068693	0
0	2084	141.913190071738	1
0	2086	142.012356738405	0
0	2088	142.069722302027	1
0	2090	142.168888968694	0
0	2092	142.224523142752	1
0	2094	142.323689809419	0
0	2096	142.519362542572	1
0	2098	142.618529209239	0
0	2100	143.070280057093	1
0	2102	143.16944672376	0
0	2104	143.442194174458	1
0	2106	143.454474856599	2
0	2108	143.480952611782	2
0	2112	143.580119278449	0
0	2114	143.894222569014	1
0	2116	143.993389235681	0
0	2118	144.290550900454	1
0	2120	144.389717567121	0
0	2122	144.482019534748	1
0	2124	144.581186201415	0
0	2126	144.797792975441	1
0	2128	144.896959642108	0
0	2130	145.029388499582	1
0	2132	145.128555166249	0
0	2134	145.156806644983	1
0	2136	145.25597331165	0
0	2138	145.3903473872	1
0	2140	145.410488330695	2
0	2143	145.509654997362	0
0	2145	145.58223145141	1
0	2147	145.666577716222	2
0	2150	145.750530834156	2
0	2153	145.849697500823	0
0	2155	145.947208966229	1
0	2157	146.046375632896	0
0	2159	146.146006393327	1
0	2161	146.184773943692	2
0	2164	146.283940610359	0
0	2166	146.388160214908	1
0	2168	146.487326881575	0
0	2170	147.037202301086	1
0	2172	147.127334269363	2
0	2175	147.22650093603	0
0	2177	147.447461373157	1
0	2179	147.546628039824	0
0	2181	147.81432301232	1
0	2183	147.913489678987	0
0	2185	148.355114536399	1
0	2187	148.454281203066	0
0	2189	148.545815676258	1
0	2191	148.644982342925	0
0	2193	148.796394229925	1
0	2195	148.809383424279	2
0	2197	148.820681288725	2
0	2201	148.919847955392	0
0	2203	148.956366360349	1
0	2205	149.055533027016	0
0	2207	149.136593146529	1
0	2209	149.147828591677	2
0	2212	149.246995258344	0
0	2214	149.41212879023	1
0	2216	149.511295456897	0
0	2218	150.469379626716	1
0	2220	150.568546293383	0
0	2222	150.697270145959	1
0	2224	150.796436812626	0
0	2226	151.036570780026	1
0	2228	151.046621455494	2
0	2231	151.145788122161	0
0	2233	151.810023639618	1
0	2235	151.909190306285	0
0	2237	151.909666374164	1
0	2239	151.915397381951	2
0	2242	152.014564048618	0
0	2244	152.177082793694	1
0	2246	152.261844620178	2
0	2249	152.361011286845	0
0	2251	152.506192907447	1
0	2253	152.601405861725	2
0	2256	152.621730232048	2
0	2259	152.720896898715	0
0	2261	152.893146825233	1
0	2263	152.9923134919	0
0	2265	153.096278039502	1
0	2267	153.195444706169	0
0	2269	153.226950792614	1
0	2271	153.279418479365	2
0	2274	153.378585146032	0
0	2276	153.507197988792	1
0	2278	153.606364655459	0
0	2280	153.642028109166	1
0	2282	153.695944200584	2
0	2285	153.795110867251	0
0	2287	153.917686996027	1
0	2289	154.016853662694	0